                         Program Version 5.0.2 -  RELEASE  -
|  1> ! UHF def2-TZVP TightSCF
|  2>
|  3> %scf BrokenSym 1,1 end
|  4>
|  5> %paras R= 4.0,0.5,35 end
|  6>
|  7> * xyz 0 1
|  8> H 0 0 0
|  9> F 0 0 {R}
| 10> *
| 11>
| 12>                          ****END OF INPUT****
 Total Charge           Charge          ....    0
 Multiplicity           Mult            ....    1
 Number of Electrons    NEL             ....   10
 Basis Dimension        Dim             ....   37

ORBITAL ENERGIES
----------------
                 SPIN UP ORBITALS
  NO   OCC          E(Eh)            E(eV)
   0   1.0000     -26.356938      -717.2087
   1   1.0000      -1.475656       -40.1546
   2   1.0000      -0.678717       -18.4688
   3   1.0000      -0.678708       -18.4686
   4   1.0000      -0.498989       -13.5782
   5   0.0000       0.058260         1.5853
   6   0.0000       0.348169         9.4742
   7   0.0000       0.651851        17.7378
   8   0.0000       0.689831        18.7713
   9   0.0000       0.697586        18.9823

                 SPIN DOWN ORBITALS
  NO   OCC          E(Eh)            E(eV)
   0   1.0000     -26.405411      -718.5277
   1   1.0000      -1.670534       -45.4575
   2   1.0000      -0.843488       -22.9525
   3   1.0000      -0.730194       -19.8696
   4   1.0000      -0.730171       -19.8690
   5   0.0000       0.057102         1.5538
   6   0.0000       0.487795        13.2736
   7   0.0000       0.628376        17.0990
   8   0.0000       0.639653        17.4058
   9   0.0000       0.678043        18.4505

MULLIKEN ATOMIC CHARGES AND SPIN POPULATIONS
--------------------------------------------
   0 H :   -0.000098    1.000006
   1 F :    0.000098   -1.000006
Sum of atomic charges         :    0.0000000

LOEWDIN ATOMIC CHARGES AND SPIN POPULATIONS
-------------------------------------------
   0 H :   -0.000063    0.999963
   1 F :    0.000063   -0.999963

FINAL SINGLE POINT ENERGY       -99.911607595814
FINAL SINGLE POINT ENERGY       -99.911602233892
FINAL SINGLE POINT ENERGY       -99.911595515368
FINAL SINGLE POINT ENERGY       -99.911585239679
FINAL SINGLE POINT ENERGY       -99.911569913010
FINAL SINGLE POINT ENERGY       -99.911547459233
FINAL SINGLE POINT ENERGY       -99.911515114559
FINAL SINGLE POINT ENERGY       -99.911469544006
FINAL SINGLE POINT ENERGY       -99.911404555630
FINAL SINGLE POINT ENERGY       -99.911311988016
FINAL SINGLE POINT ENERGY       -99.858849218728
FINAL SINGLE POINT ENERGY       -99.842378344377
FINAL SINGLE POINT ENERGY       -99.821645771487
FINAL SINGLE POINT ENERGY       -99.796154172188
FINAL SINGLE POINT ENERGY       -99.765487027486
FINAL SINGLE POINT ENERGY       -99.727382748968
FINAL SINGLE POINT ENERGY       -99.671758372603
FINAL SINGLE POINT ENERGY       -99.982853710467
FINAL SINGLE POINT ENERGY       -99.804118802146

CARTESIAN COORDINATES (ANGSTROEM)
---------------------------------
  H      0.000000    0.000000    0.000000
  F      0.000000    0.000000    0.500000

FINAL SINGLE POINT ENERGY       -99.386295692648

DIPOLE MOMENT
-------------
                                X             Y             Z
Electronic contribution:     -0.00000       0.00000      -0.04153
Nuclear contribution   :      0.00000       0.00000      -0.46879
                        -----------------------------------------
Total Dipole Moment    :     -0.00000       0.00000      -0.51033
                        -----------------------------------------
Magnitude (a.u.)       :      0.51033
Magnitude (Debye)      :      1.29715

Rotational constants in cm-1:     0.000000    70.444768    70.444768
Rotational constants in MHz :     0.000000 2111881.006407 2111881.006407

                             ****ORCA TERMINATED NORMALLY****
TOTAL RUN TIME: 0 days 0 hours 7 minutes 21 seconds 747 msec
