                         Program Version 5.0.2 -  RELEASE  -
|  1> !PBE RI pcSseg-2 def2/J NMR
|  2>
|  3> *xyzfile 0 1 OPT_Ar-3.xyz
|  4>
|  5>
|  6>                          ****END OF INPUT****

CARTESIAN COORDINATES (ANGSTROEM)
---------------------------------
  C      1.875505  -13.437417   -7.449994
  C      0.808040  -13.362913   -6.566585
  C      2.595876  -12.294183   -7.765545
  C      2.248313  -11.076398   -7.198315
  C      1.180848  -11.001895   -6.314905
  C      0.460477  -12.145128   -5.999354
  H      2.146613  -14.387220   -7.892109
  H      0.246293  -14.254522   -6.320432
  H      3.428441  -12.352248   -8.454467
  H      2.810064  -10.184792   -7.444469
  H      0.909741  -10.052091   -5.872792
  H     -0.372089  -12.087063   -5.310434

 Total Charge           Charge          ....    0
 Multiplicity           Mult            ....    1
 Number of Electrons    NEL             ....   42
 Basis Dimension        Dim             ....  300

ORBITAL ENERGIES
----------------

  NO   OCC          E(Eh)            E(eV)
   0   2.0000      -9.886055      -269.0132
   1   2.0000      -9.885844      -269.0075
   2   2.0000      -9.885841      -269.0074
   3   2.0000      -9.885413      -268.9957
   4   2.0000      -9.885409      -268.9957
   5   2.0000      -9.885196      -268.9899
   6   2.0000      -0.782071       -21.2812
   7   2.0000      -0.678006       -18.4495
   8   2.0000      -0.677983       -18.4489
   9   2.0000      -0.544921       -14.8281
  10   2.0000      -0.544908       -14.8277
  11   2.0000      -0.475982       -12.9521
  12   2.0000      -0.409819       -11.1517
  13   2.0000      -0.401778       -10.9329
  14   2.0000      -0.376079       -10.2336
  15   2.0000      -0.376049       -10.2328
  16   2.0000      -0.335423        -9.1273
  17   2.0000      -0.301765        -8.2114
  18   2.0000      -0.301735        -8.2106
  19   2.0000      -0.233485        -6.3535
  20   2.0000      -0.233470        -6.3530
  21   0.0000      -0.042591        -1.1590
  22   0.0000      -0.042586        -1.1588
  23   0.0000       0.001425         0.0388
  24   0.0000       0.028391         0.7726
  25   0.0000       0.028399         0.7728

MULLIKEN ATOMIC CHARGES
-----------------------
   0 C :   -0.031358
   1 C :   -0.031365
   2 C :   -0.031361
   3 C :   -0.031350
   4 C :   -0.031373
   5 C :   -0.031344
   6 H :    0.031364
   7 H :    0.031360
   8 H :    0.031346
   9 H :    0.031364
  10 H :    0.031364
  11 H :    0.031353
Sum of atomic charges:    0.0000000

LOEWDIN ATOMIC CHARGES
----------------------
   0 C :   -0.031244
   1 C :   -0.031247
   2 C :   -0.031240
   3 C :   -0.031247
   4 C :   -0.031244
   5 C :   -0.031240
   6 H :    0.031243
   7 H :    0.031243
   8 H :    0.031245
   9 H :    0.031243
  10 H :    0.031243
  11 H :    0.031245

  Mayer bond orders larger than 0.100000
B(  0-C ,  1-C ) :   1.4200 B(  0-C ,  2-C ) :   1.4200 B(  0-C ,  6-H ) :   1.0075
B(  1-C ,  5-C ) :   1.4200 B(  1-C ,  7-H ) :   1.0075 B(  2-C ,  3-C ) :   1.4200
B(  2-C ,  8-H ) :   1.0075 B(  3-C ,  4-C ) :   1.4200 B(  3-C ,  9-H ) :   1.0075
B(  4-C ,  5-C ) :   1.4200 B(  4-C , 10-H ) :   1.0075 B(  5-C , 11-H ) :   1.0075

FINAL SINGLE POINT ENERGY      -232.024338408722

DIPOLE MOMENT
-------------
                                X             Y             Z
Electronic contribution:     -0.00000       0.00000       0.00000
Nuclear contribution   :      0.00000      -0.00000      -0.00000
                        -----------------------------------------
Total Dipole Moment    :      0.00000      -0.00000      -0.00000
                        -----------------------------------------
Magnitude (a.u.)       :      0.00000
Magnitude (Debye)      :      0.00000

Rotational constants in cm-1:     0.191954     0.191926     0.095970
Rotational constants in MHz :  5754.640288  5753.807144  2877.111888

CHEMICAL SHIELDING SUMMARY (ppm)
--------------------------------

  Nucleus  Element    Isotropic     Anisotropy
  -------  -------  ------------   ------------
      0       C           45.082        188.085
      1       C           45.120        188.196
      2       C           45.134        188.221
      3       C           45.213        188.475
      4       C           45.250        188.588
      5       C           45.209        188.444
      6       H           23.824          5.117
      7       H           23.824          5.118
      8       H           23.824          5.117
      9       H           23.823          5.119
     10       H           23.822          5.120
     11       H           23.823          5.118

                             ****ORCA TERMINATED NORMALLY****
TOTAL RUN TIME: 0 days 0 hours 0 minutes 53 seconds 722 msec
