                         Program Version 5.0.2 -  RELEASE  -
|  1> !PBE RI pcSseg-2 def2/J NMR
|  2> ! CPCM(Water)
|  3>
|  4> *xyzfile 0 1 Acetone.xyz
|  5>
|  6>
|  7>
|  8>                          ****END OF INPUT****

CARTESIAN COORDINATES (ANGSTROEM)
---------------------------------
  C     -7.108905    1.387198   -0.000000
  C     -5.857466    2.239815   -0.000006
  C     -4.515106    1.538228    0.000001
  O     -5.927614    3.441591   -0.000007
  H     -6.908692    0.318270    0.000004
  H     -7.715105    1.627575   -0.874473
  H     -7.715103    1.627582    0.874472
  H     -4.590570    0.453426   -0.000010
  H     -3.941513    1.847574    0.874656
  H     -3.941495    1.847591   -0.874636

 Total Charge           Charge          ....    0
 Multiplicity           Mult            ....    1
 Number of Electrons    NEL             ....   32
 Basis Dimension        Dim             ....  228

ORBITAL ENERGIES
----------------

  NO   OCC          E(Eh)            E(eV)
   0   2.0000     -18.739231      -509.9204
   1   2.0000      -9.973598      -271.3954
   2   2.0000      -9.876439      -268.7516
   3   2.0000      -9.876424      -268.7512
   4   2.0000      -0.965871       -26.2827
   5   2.0000      -0.690646       -18.7934
   6   2.0000      -0.639666       -17.4062
   7   2.0000      -0.477736       -12.9999
   8   2.0000      -0.411278       -11.1915
   9   2.0000      -0.409857       -11.1528
  10   2.0000      -0.405523       -11.0348
  11   2.0000      -0.355247        -9.6668
  12   2.0000      -0.352754        -9.5989
  13   2.0000      -0.325425        -8.8553
  14   2.0000      -0.311986        -8.4896
  15   2.0000      -0.214061        -5.8249
  16   0.0000      -0.062943        -1.7128
  17   0.0000       0.006202         0.1688
  18   0.0000       0.043670         1.1883
  19   0.0000       0.056311         1.5323
  20   0.0000       0.074760         2.0343

MULLIKEN ATOMIC CHARGES
-----------------------
   0 C :   -0.100343
   1 C :    0.248339
   2 C :   -0.100023
   3 O :   -0.428803
   4 H :    0.051583
   5 H :    0.069466
   6 H :    0.069466
   7 H :    0.051596
   8 H :    0.069361
   9 H :    0.069360
Sum of atomic charges:   -0.0000000

LOEWDIN ATOMIC CHARGES
----------------------
   0 C :   -0.057184
   1 C :   -0.107203
   2 C :   -0.057079
   3 O :   -0.061525
   4 H :    0.038345
   5 H :    0.051625
   6 H :    0.051625
   7 H :    0.038311
   8 H :    0.051543
   9 H :    0.051542

  Mayer bond orders larger than 0.100000
B(  0-C ,  1-C ) :   0.9624 B(  0-C ,  4-H ) :   0.9860 B(  0-C ,  5-H ) :   0.9768
B(  0-C ,  6-H ) :   0.9769 B(  1-C ,  2-C ) :   0.9624 B(  1-C ,  3-O ) :   1.9708
B(  2-C ,  7-H ) :   0.9860 B(  2-C ,  8-H ) :   0.9768 B(  2-C ,  9-H ) :   0.9768

FINAL SINGLE POINT ENERGY      -192.997187958751

DIPOLE MOMENT
-------------
                                X             Y             Z
Electronic contribution:     -0.19781       3.39918      -0.00002
Nuclear contribution   :      0.28112      -4.84007       0.00003
                        -----------------------------------------
Total Dipole Moment    :      0.08331      -1.44089       0.00001
                        -----------------------------------------
Magnitude (a.u.)       :      1.44330
Magnitude (Debye)      :      3.66857

Rotational constants in cm-1:     0.348794     0.277515     0.163812
Rotational constants in MHz : 10456.578112  8319.694946  4910.963390

CHEMICAL SHIELDING SUMMARY (ppm)
--------------------------------

  Nucleus  Element    Isotropic     Anisotropy
  -------  -------  ------------   ------------
      0       C          148.996         57.279
      1       C          -44.898       -104.967
      2       C          149.036         57.135
      3       O         -279.791       -795.738
      4       H           28.726          3.632
      5       H           29.417          5.993
      6       H           29.417          5.993
      7       H           28.759          3.623
      8       H           29.419          6.025
      9       H           29.419          6.025

                             ****ORCA TERMINATED NORMALLY****
TOTAL RUN TIME: 0 days 0 hours 0 minutes 40 seconds 887 msec
