                         Program Version 5.0.2 -  RELEASE  -
|  1> ! RHF def2-TZVP TightSCF
|  2>
|  3> %paras R= 4.0,0.5,35 end
|  4>
|  5> * xyz 0 1
|  6> H 0 0 0
|  7> F 0 0 {R}
|  8> **                         ****END OF INPUT****
 Total Charge           Charge          ....    0
 Multiplicity           Mult            ....    1
 Number of Electrons    NEL             ....   10
 Basis Dimension        Dim             ....   37

ORBITAL ENERGIES
----------------

  NO   OCC          E(Eh)            E(eV)
   0   2.0000     -26.218404      -713.4391
   1   2.0000      -1.419727       -38.6327
   2   2.0000      -0.545124       -14.8336
   3   2.0000      -0.545124       -14.8336
   4   2.0000      -0.375674       -10.2226
   5   0.0000      -0.234859        -6.3908
   6   0.0000       0.295457         8.0398
   7   0.0000       0.746110        20.3027
   8   0.0000       0.788668        21.4608
   9   0.0000       0.788668        21.4608

MULLIKEN ATOMIC CHARGES
-----------------------
   0 H :    0.405736
   1 F :   -0.405736
Sum of atomic charges:   -0.0000000

LOEWDIN ATOMIC CHARGES
----------------------
   0 H :    0.406375
   1 F :   -0.406375

  Mayer bond orders larger than 0.100000
B(  0-H ,  1-F ) :   0.8354

FINAL SINGLE POINT ENERGY       -99.643491382471
FINAL SINGLE POINT ENERGY       -99.646546509941
FINAL SINGLE POINT ENERGY       -99.649866782133
FINAL SINGLE POINT ENERGY       -99.653481573092
FINAL SINGLE POINT ENERGY       -99.657423701120
FINAL SINGLE POINT ENERGY       -99.661729908655
FINAL SINGLE POINT ENERGY       -99.666441383644
FINAL SINGLE POINT ENERGY       -99.671604282616
FINAL SINGLE POINT ENERGY       -99.677270210024
FINAL SINGLE POINT ENERGY       -99.683496617930
FINAL SINGLE POINT ENERGY       -99.934734454047
FINAL SINGLE POINT ENERGY       -99.964935704218
FINAL SINGLE POINT ENERGY       -99.995859122266
FINAL SINGLE POINT ENERGY      -100.025637150904
FINAL SINGLE POINT ENERGY      -100.050587665070
FINAL SINGLE POINT ENERGY      -100.063501133648
FINAL SINGLE POINT ENERGY      -100.050202086955
FINAL SINGLE POINT ENERGY       -99.982854826469
FINAL SINGLE POINT ENERGY       -99.804118454078

CARTESIAN COORDINATES (ANGSTROEM)
---------------------------------
  H      0.000000    0.000000    0.000000
  F      0.000000    0.000000    0.500000

FINAL SINGLE POINT ENERGY       -99.386295431522

DIPOLE MOMENT
-------------
                                X             Y             Z
Electronic contribution:      0.00000      -0.00000      -0.04153
Nuclear contribution   :      0.00000       0.00000      -0.46879
                        -----------------------------------------
Total Dipole Moment    :      0.00000      -0.00000      -0.51033
                        -----------------------------------------
Magnitude (a.u.)       :      0.51033
Magnitude (Debye)      :      1.29715

Rotational constants in cm-1:     0.000000    70.444768    70.444768
Rotational constants in MHz :     0.000000 2111881.006407 2111881.006407

                             ****ORCA TERMINATED NORMALLY****
TOTAL RUN TIME: 0 days 0 hours 2 minutes 42 seconds 524 msec
