                         Program Version 5.0.2 -  RELEASE  -
|  1> ! RHF CCSD(T) def2-TZVP TightSCF
|  2>
|  3> %scf BrokenSym 1,1 end
|  4>
|  5> * xyz 0 2
|  6> H 0 0 0
|  7> **                         ****END OF INPUT****

CARTESIAN COORDINATES (ANGSTROEM)
---------------------------------
  H      0.000000    0.000000    0.000000

 Total Charge           Charge          ....    0
 Multiplicity           Mult            ....    2
 Number of Electrons    NEL             ....    1
 Basis Dimension        Dim             ....    6

ORBITAL ENERGIES
----------------
                 SPIN UP ORBITALS
  NO   OCC          E(Eh)            E(eV)
   0   1.0000      -0.002934        -0.0799
   1   0.0000       0.742030        20.1917
   2   0.0000       2.087744        56.8104
   3   0.0000       2.087744        56.8104
   4   0.0000       2.087744        56.8104
   5   0.0000       2.981050        81.1185

                 SPIN DOWN ORBITALS
  NO   OCC          E(Eh)            E(eV)
   0   1.0000      -0.003975        -0.1082
   1   0.0000       0.741037        20.1646
   2   0.0000       2.087131        56.7937
   3   0.0000       2.087131        56.7937
   4   0.0000       2.087131        56.7937
   5   0.0000       2.980281        81.0976

MULLIKEN ATOMIC CHARGES AND SPIN POPULATIONS
--------------------------------------------
   0 H :   -1.000000    0.000000
Sum of atomic charges         :   -1.0000000

E(0)                                       ...     -0.466496941
E(0)                                       ...     -0.466496941
E(CORR)                                    ...     -0.021229839
E(TOT)                                     ...     -0.487726780
E(CCSD(T))                                 ...     -0.487726780

LOEWDIN ATOMIC CHARGES AND SPIN DENSITIES
-----------------------------------------
   0 H :   -1.000000    0.000000

FINAL SINGLE POINT ENERGY        -0.487726779891

DIPOLE MOMENT
-------------
                                X             Y             Z
Electronic contribution:     -0.00000       0.00000       0.00000
Nuclear contribution   :      0.00000       0.00000       0.00000
                        -----------------------------------------
Total Dipole Moment    :     -0.00000       0.00000       0.00000
                        -----------------------------------------
Magnitude (a.u.)       :      0.00000
Magnitude (Debye)      :      0.00000

Rotational constants in cm-1:     0.000000     0.000000     0.000000
Rotational constants in MHz :     0.000000     0.000000     0.000000

                             ****ORCA TERMINATED NORMALLY****
TOTAL RUN TIME: 0 days 0 hours 0 minutes 22 seconds 262 msec
