                         Program Version 5.0.2 -  RELEASE  -
|  1> ! PBEh-3c Opt
|  2>
|  3> *xyzfile 0 1 G.xyz
|  4>
|  5>                          ****END OF INPUT****
 Total Charge           Charge          ....    0
 Multiplicity           Mult            ....    1
 Number of Electrons    NEL             ....   48
Dispersion correction           -0.005945544
FINAL SINGLE POINT ENERGY      -306.988999072826
Dispersion correction            ... done
Dispersion correction           -0.005977367
FINAL SINGLE POINT ENERGY      -306.991624423992
Dispersion correction            ... done
Dispersion correction           -0.005974959
FINAL SINGLE POINT ENERGY      -306.991884980286
Dispersion correction            ... done
Dispersion correction           -0.005969400
FINAL SINGLE POINT ENERGY      -306.991930467898
Dispersion correction            ... done
Dispersion correction           -0.005967457
FINAL SINGLE POINT ENERGY      -306.991934314064
Dispersion correction            ... done
                    ***********************HURRAY********************

CARTESIAN COORDINATES (ANGSTROEM)
---------------------------------
  C     -7.366053    1.339991   -7.001616
  C     -7.417624   -0.060481   -6.418278
  O     -6.906056    2.265658   -6.046950
  O     -6.159677   -0.441781   -5.916614
  C     -5.699676    0.483884   -4.961949
  C     -5.648109    1.884359   -5.545282
  H     -8.361798    1.660335   -7.315122
  H     -6.716896    1.343721   -7.890606
  H     -7.696626   -0.784434   -7.186653
  H     -8.180324   -0.101460   -5.625725
  H     -4.703926    0.163545   -4.648452
  H     -6.348826    0.480149   -4.072954
  H     -4.885405    1.925347   -6.337831
  H     -5.369114    2.608306   -4.776899

 Multiplicity           Mult            ....    1
 Number of Electrons    NEL             ....   48
 Basis Dimension        Dim             ....  106

ORBITAL ENERGIES
----------------

  NO   OCC          E(Eh)            E(eV)
   0   2.0000     -19.499045      -530.5960
   1   2.0000     -19.499009      -530.5950
   2   2.0000     -10.484262      -285.2913
   3   2.0000     -10.484200      -285.2896
   4   2.0000     -10.484020      -285.2847
   5   2.0000     -10.483978      -285.2836
   6   2.0000      -1.173096       -31.9216
   7   2.0000      -1.132685       -30.8219
   8   2.0000      -0.871529       -23.7155
   9   2.0000      -0.780233       -21.2312
  10   2.0000      -0.745943       -20.2981
  11   2.0000      -0.650811       -17.7095
  12   2.0000      -0.578631       -15.7453
  13   2.0000      -0.547419       -14.8960
  14   2.0000      -0.540253       -14.7010
  15   2.0000      -0.539472       -14.6798
  16   2.0000      -0.512679       -13.9507
  17   2.0000      -0.453530       -12.3412
  18   2.0000      -0.432821       -11.7776
  19   2.0000      -0.424211       -11.5434
  20   2.0000      -0.413965       -11.2646
  21   2.0000      -0.352521        -9.5926
  22   2.0000      -0.342067        -9.3081
  23   2.0000      -0.289786        -7.8855
  24   0.0000       0.135881         3.6975
  25   0.0000       0.159207         4.3323
  26   0.0000       0.170491         4.6393
  27   0.0000       0.185557         5.0493
  28   0.0000       0.193197         5.2572

MULLIKEN ATOMIC CHARGES
-----------------------
   0 C :   -0.179763
   1 C :   -0.179363
   2 O :   -0.453363
   3 O :   -0.453363
   4 C :   -0.179763
   5 C :   -0.179363
   6 H :    0.215917
   7 H :    0.190425
   8 H :    0.215839
   9 H :    0.190309
  10 H :    0.215917
  11 H :    0.190425
  12 H :    0.190308
  13 H :    0.215839
Sum of atomic charges:   -0.0000000

LOEWDIN ATOMIC CHARGES
----------------------
   0 C :   -0.105924
   1 C :   -0.105894
   2 O :   -0.249163
   3 O :   -0.249163
   4 C :   -0.105925
   5 C :   -0.105894
   6 H :    0.125311
   7 H :    0.105215
   8 H :    0.125297
   9 H :    0.105158
  10 H :    0.125311
  11 H :    0.105214
  12 H :    0.105158
  13 H :    0.125297

  Mayer bond orders larger than 0.100000
B(  0-C ,  1-C ) :   0.9533 B(  0-C ,  2-O ) :   0.9829 B(  0-C ,  6-H ) :   0.9187
B(  0-C ,  7-H ) :   0.8997 B(  1-C ,  3-O ) :   0.9828 B(  1-C ,  8-H ) :   0.9187
B(  1-C ,  9-H ) :   0.8998 B(  2-O ,  5-C ) :   0.9828 B(  3-O ,  4-C ) :   0.9829
B(  4-C ,  5-C ) :   0.9533 B(  4-C , 10-H ) :   0.9187 B(  4-C , 11-H ) :   0.8997
B(  5-C , 12-H ) :   0.8998 B(  5-C , 13-H ) :   0.9187

Dispersion correction           -0.005966948
FINAL SINGLE POINT ENERGY      -306.991934986297

DIPOLE MOMENT
-------------
                                X             Y             Z
Electronic contribution:     -0.00001      -0.00000      -0.00001
Nuclear contribution   :      0.00001       0.00000       0.00001
                        -----------------------------------------
Total Dipole Moment    :     -0.00000      -0.00000      -0.00000
                        -----------------------------------------
Magnitude (a.u.)       :      0.00000
Magnitude (Debye)      :      0.00000

Rotational constants in cm-1:     0.171660     0.157800     0.092244
Rotational constants in MHz :  5146.248509  4730.728308  2765.414363

                             ****ORCA TERMINATED NORMALLY****
TOTAL RUN TIME: 0 days 0 hours 4 minutes 17 seconds 331 msec
