                         Program Version 5.0.2 -  RELEASE  -
|  1> !PBE RI pcSseg-2 def2/J NMR
|  2>
|  3> *xyzfile 0 1 OPT_TMS.xyz
|  4>
|  5>
|  6>
|  7>                          ****END OF INPUT****

CARTESIAN COORDINATES (ANGSTROEM)
---------------------------------
  Si    -2.021649    1.206859   -0.015212
  C     -0.732782    2.580156    0.092370
  C     -3.751758    1.958344    0.028180
  C     -1.794206    0.255500   -1.628361
  C     -1.804144    0.031746    1.444182
  H     -0.823842    3.281748   -0.738348
  H      0.282011    2.179231    0.069231
  H     -0.833458    3.154736    1.014820
  H     -3.904862    2.660284   -0.793373
  H     -3.930575    2.502469    0.957048
  H     -4.524193    1.191803   -0.052912
  H     -1.905332    0.907662   -2.496451
  H     -2.527838   -0.545909   -1.729549
  H     -0.804785   -0.200759   -1.690538
  H     -1.932107    0.546573    2.397742
  H     -0.810588   -0.419713    1.450133
  H     -2.529283   -0.783590    1.415918

 Total Charge           Charge          ....    0
 Multiplicity           Mult            ....    1
 Number of Electrons    NEL             ....   50
 Basis Dimension        Dim             ....  355

ORBITAL ENERGIES
----------------

  NO   OCC          E(Eh)            E(eV)
   0   2.0000     -65.364282     -1778.6525
   1   2.0000      -9.853952      -268.1397
   2   2.0000      -9.853882      -268.1378
   3   2.0000      -9.853853      -268.1370
   4   2.0000      -9.853842      -268.1367
   5   2.0000      -5.019650      -136.5916
   6   2.0000      -3.429589       -93.3239
   7   2.0000      -3.429582       -93.3237
   8   2.0000      -3.429553       -93.3229
   9   2.0000      -0.649547       -17.6751
  10   2.0000      -0.609290       -16.5796
  11   2.0000      -0.609135       -16.5754
  12   2.0000      -0.609128       -16.5752
  13   2.0000      -0.408623       -11.1192
  14   2.0000      -0.366388        -9.9699
  15   2.0000      -0.366336        -9.9685
  16   2.0000      -0.366282        -9.9670
  17   2.0000      -0.351815        -9.5734
  18   2.0000      -0.351642        -9.5687
  19   2.0000      -0.334457        -9.1010
  20   2.0000      -0.334415        -9.0999
  21   2.0000      -0.334381        -9.0990
  22   2.0000      -0.259080        -7.0499
  23   2.0000      -0.258876        -7.0444
  24   2.0000      -0.258799        -7.0423
  25   0.0000      -0.010240        -0.2787
  26   0.0000       0.028235         0.7683
  27   0.0000       0.028252         0.7688
  28   0.0000       0.028272         0.7693
  29   0.0000       0.046173         1.2564

MULLIKEN ATOMIC CHARGES
-----------------------
   0 Si:    0.597152
   1 C :   -0.294051
   2 C :   -0.294199
   3 C :   -0.294624
   4 C :   -0.293322
   5 H :    0.048015
   6 H :    0.048292
   7 H :    0.048471
   8 H :    0.048317
   9 H :    0.048385
  10 H :    0.048285
  11 H :    0.048214
  12 H :    0.048290
  13 H :    0.048493
  14 H :    0.048132
  15 H :    0.047988
  16 H :    0.048160
Sum of atomic charges:    0.0000000

LOEWDIN ATOMIC CHARGES
----------------------
   0 Si:    0.938758
   1 C :   -0.286212
   2 C :   -0.286241
   3 C :   -0.286288
   4 C :   -0.286318
   5 H :    0.017013
   6 H :    0.017258
   7 H :    0.017279
   8 H :    0.017285
   9 H :    0.017124
  10 H :    0.017206
  11 H :    0.017247
  12 H :    0.017128
  13 H :    0.017176
  14 H :    0.017105
  15 H :    0.017241
  16 H :    0.017239

  Mayer bond orders larger than 0.100000
B(  0-Si,  1-C ) :   0.9453 B(  0-Si,  2-C ) :   0.9449 B(  0-Si,  3-C ) :   0.9452
B(  0-Si,  4-C ) :   0.9450 B(  1-C ,  5-H ) :   0.9824 B(  1-C ,  6-H ) :   0.9822
B(  1-C ,  7-H ) :   0.9824 B(  2-C ,  8-H ) :   0.9823 B(  2-C ,  9-H ) :   0.9824
B(  2-C , 10-H ) :   0.9824 B(  3-C , 11-H ) :   0.9823 B(  3-C , 12-H ) :   0.9824
B(  3-C , 13-H ) :   0.9823 B(  4-C , 14-H ) :   0.9824 B(  4-C , 15-H ) :   0.9823
B(  4-C , 16-H ) :   0.9824

FINAL SINGLE POINT ENERGY      -448.879950680078

DIPOLE MOMENT
-------------
                                X             Y             Z
Electronic contribution:     -0.00732       0.00422       0.00714
Nuclear contribution   :      0.00645      -0.00372      -0.00689
                        -----------------------------------------
Total Dipole Moment    :     -0.00087       0.00050       0.00026
                        -----------------------------------------
Magnitude (a.u.)       :      0.00104
Magnitude (Debye)      :      0.00263

Rotational constants in cm-1:     0.102667     0.102393     0.102361
Rotational constants in MHz :  3077.876201  3069.655695  3068.696258

CHEMICAL SHIELDING SUMMARY (ppm)
--------------------------------

  Nucleus  Element    Isotropic     Anisotropy
  -------  -------  ------------   ------------
      0       Si         323.855          0.739
      1       C          181.722         10.665
      2       C          181.771         10.676
      3       C          181.719         10.716
      4       C          181.735         10.684
      5       H           31.510          9.384
      6       H           31.503          9.345
      7       H           31.495          9.356
      8       H           31.501          9.353
      9       H           31.503          9.393
     10       H           31.504          9.363
     11       H           31.501          9.345
     12       H           31.508          9.367
     13       H           31.504          9.377
     14       H           31.506          9.375
     15       H           31.506          9.344
     16       H           31.496          9.378

                             ****ORCA TERMINATED NORMALLY****
TOTAL RUN TIME: 0 days 0 hours 1 minutes 0 seconds 919 msec
