                         Program Version 5.0.2 -  RELEASE  -
|  1> ! PBEh-3c Opt
|  2>
|  3> *xyzfile 0 1 F.xyz
|  4>
|  5>                          ****END OF INPUT****
 Total Charge           Charge          ....    0
 Multiplicity           Mult            ....    1
 Number of Electrons    NEL             ....   52
Dispersion correction           -0.005623770
FINAL SINGLE POINT ENERGY      -359.892997708221
Dispersion correction            ... done
Dispersion correction           -0.005644273
FINAL SINGLE POINT ENERGY      -359.905373722902
Dispersion correction            ... done
Dispersion correction           -0.005640427
FINAL SINGLE POINT ENERGY      -359.907354823587
Dispersion correction            ... done
FINAL SINGLE POINT ENERGY      -359.907522643603
Dispersion correction            ... done
Dispersion correction           -0.005636772
FINAL SINGLE POINT ENERGY      -359.907545272413
Dispersion correction            ... done
Dispersion correction           -0.005636730
FINAL SINGLE POINT ENERGY      -359.907547662251
Dispersion correction            ... done
                    ***********************HURRAY********************

CARTESIAN COORDINATES (ANGSTROEM)
---------------------------------
  C     -6.914805   -1.090402   -5.449257
  C     -5.736593   -1.008206   -4.483126
  C     -5.157671    0.381097   -4.669820
  C     -6.968635    0.261579   -6.135080
  N     -5.926176    1.009858   -5.627751
  O     -4.217364    0.867628   -4.108309
  O     -7.752243    0.636045   -6.960849
  H     -7.868247   -1.275344   -4.954060
  H     -6.799034   -1.867347   -6.205354
  H     -4.960348   -1.746987   -4.683805
  H     -6.025622   -1.134660   -3.439455
  H     -5.744772    1.956448   -5.928643

 Multiplicity           Mult            ....    1
 Number of Electrons    NEL             ....   52
 Basis Dimension        Dim             ....  115

ORBITAL ENERGIES
----------------

  NO   OCC          E(Eh)            E(eV)
   0   2.0000     -19.491757      -530.3977
   1   2.0000     -19.491711      -530.3964
   2   2.0000     -14.697204      -399.9313
   3   2.0000     -10.577879      -287.8387
   4   2.0000     -10.577821      -287.8371
   5   2.0000     -10.472684      -284.9762
   6   2.0000     -10.472472      -284.9704
   7   2.0000      -1.192986       -32.4628
   8   2.0000      -1.172760       -31.9124
   9   2.0000      -1.067556       -29.0497
  10   2.0000      -0.909048       -24.7364
  11   2.0000      -0.790952       -21.5229
  12   2.0000      -0.704332       -19.1659
  13   2.0000      -0.698277       -19.0011
  14   2.0000      -0.580187       -15.7877
  15   2.0000      -0.561911       -15.2904
  16   2.0000      -0.532334       -14.4855
  17   2.0000      -0.516803       -14.0629
  18   2.0000      -0.488314       -13.2877
  19   2.0000      -0.488218       -13.2851
  20   2.0000      -0.486236       -13.2311
  21   2.0000      -0.476258       -12.9596
  22   2.0000      -0.410395       -11.1674
  23   2.0000      -0.353883        -9.6297
  24   2.0000      -0.349117        -9.4999
  25   2.0000      -0.322365        -8.7720
  26   0.0000       0.010928         0.2974
  27   0.0000       0.058067         1.5801
  28   0.0000       0.121050         3.2939
  29   0.0000       0.141994         3.8639
  30   0.0000       0.174907         4.7594

MULLIKEN ATOMIC CHARGES
-----------------------
   0 C :   -0.583856
   1 C :   -0.583870
   2 C :    0.527503
   3 C :    0.527583
   4 N :   -0.677515
   5 O :   -0.357251
   6 O :   -0.357175
   7 H :    0.278991
   8 H :    0.279020
   9 H :    0.278996
  10 H :    0.278989
  11 H :    0.388584
Sum of atomic charges:   -0.0000000

LOEWDIN ATOMIC CHARGES
----------------------
   0 C :   -0.272324
   1 C :   -0.272343
   2 C :    0.119867
   3 C :    0.119969
   4 N :   -0.203194
   5 O :   -0.207522
   6 O :   -0.207446
   7 H :    0.161035
   8 H :    0.161284
   9 H :    0.161107
  10 H :    0.161237
  11 H :    0.278331

  Mayer bond orders larger than 0.100000
B(  0-C ,  1-C ) :   0.9335 B(  0-C ,  3-C ) :   0.9139 B(  0-C ,  7-H ) :   0.9011
B(  0-C ,  8-H ) :   0.9006 B(  1-C ,  2-C ) :   0.9139 B(  1-C ,  9-H ) :   0.9010
B(  1-C , 10-H ) :   0.9008 B(  2-C ,  4-N ) :   1.0474 B(  2-C ,  5-O ) :   2.1223
B(  3-C ,  4-N ) :   1.0470 B(  3-C ,  6-O ) :   2.1225 B(  4-N , 11-H ) :   0.8011

Dispersion correction           -0.005636765
FINAL SINGLE POINT ENERGY      -359.907548095859

DIPOLE MOMENT
-------------
                                X             Y             Z
Electronic contribution:      0.73321       3.83627      -1.21984
Nuclear contribution   :     -0.87053      -4.58102       1.45020
                        -----------------------------------------
Total Dipole Moment    :     -0.13731      -0.74475       0.23036
                        -----------------------------------------
Magnitude (a.u.)       :      0.79156
Magnitude (Debye)      :      2.01199

Rotational constants in cm-1:     0.199573     0.076287     0.056329
Rotational constants in MHz :  5983.058266  2287.034537  1688.698861

                             ****ORCA TERMINATED NORMALLY****
TOTAL RUN TIME: 0 days 0 hours 4 minutes 41 seconds 678 msec
