                         Program Version 5.0.2 -  RELEASE  -
|  1> !PBE RI pcSseg-2 def2/J NMR
|  2> ! CPCM(Water)
|  3>
|  4> *xyzfile 0 1 H2O.xyz
|  5>
|  6>
|  7>                          ****END OF INPUT****

CARTESIAN COORDINATES (ANGSTROEM)
---------------------------------
  O     -5.362726    1.450539    0.016570
  H     -4.403981    1.466499   -0.027072
  H     -5.638572    1.766322   -0.846998

 Total Charge           Charge          ....    0
 Multiplicity           Mult            ....    1
 Number of Electrons    NEL             ....   10
 Basis Dimension        Dim             ....   64

ORBITAL ENERGIES
----------------

  NO   OCC          E(Eh)            E(eV)
   0   2.0000     -18.745107      -510.0803
   1   2.0000      -0.922854       -25.1121
   2   2.0000      -0.473830       -12.8936
   3   2.0000      -0.340538        -9.2665
   4   2.0000      -0.263305        -7.1649
   5   0.0000       0.001177         0.0320
   6   0.0000       0.073319         1.9951
   7   0.0000       0.250418         6.8142
   8   0.0000       0.275394         7.4939
   9   0.0000       0.301067         8.1924

MULLIKEN ATOMIC CHARGES
-----------------------
   0 O :   -0.493810
   1 H :    0.246879
   2 H :    0.246931
Sum of atomic charges:   -0.0000000

LOEWDIN ATOMIC CHARGES
----------------------
   0 O :    0.062673
   1 H :   -0.031403
   2 H :   -0.031270

  Mayer bond orders larger than 0.100000
B(  0-O ,  1-H ) :   0.9938 B(  0-O ,  2-H ) :   0.9938

FINAL SINGLE POINT ENERGY       -76.391900843824

DIPOLE MOMENT
-------------
                                X             Y             Z
Electronic contribution:     -0.04110      -0.02000       0.05468
Nuclear contribution   :      0.56842       0.27613      -0.75513
                        -----------------------------------------
Total Dipole Moment    :      0.52732       0.25613      -0.70044
                        -----------------------------------------
Magnitude (a.u.)       :      0.91339
Magnitude (Debye)      :      2.32166

Rotational constants in cm-1:    26.912614    14.629059     9.477380
Rotational constants in MHz : 806819.873299 438568.146172 284124.698965

CHEMICAL SHIELDING SUMMARY (ppm)
--------------------------------

  Nucleus  Element    Isotropic     Anisotropy
  -------  -------  ------------   ------------
      0       O          338.425         50.937
      1       H           30.219         20.763
      2       H           30.207         20.770

                             ****ORCA TERMINATED NORMALLY****
TOTAL RUN TIME: 0 days 0 hours 0 minutes 5 seconds 635 msec
