                         Program Version 5.0.2 -  RELEASE  -
|  1> ! PBEh-3c Opt
|  2>
|  3> *xyzfile 0 1 E.xyz
|  4>
|  5>                          ****END OF INPUT****
 Total Charge           Charge          ....    0
 Multiplicity           Mult            ....    1
 Number of Electrons    NEL             ....   22
Dispersion correction           -0.001826203
FINAL SINGLE POINT ENERGY      -116.383204275979
Dispersion correction            ... done
Dispersion correction           -0.001829668
FINAL SINGLE POINT ENERGY      -116.384305419135
Dispersion correction            ... done
Dispersion correction           -0.001829241
FINAL SINGLE POINT ENERGY      -116.384374847682
Dispersion correction            ... done
Dispersion correction           -0.001828441
FINAL SINGLE POINT ENERGY      -116.384403207321
Dispersion correction            ... done
                    ***********************HURRAY********************

CARTESIAN COORDINATES (ANGSTROEM)
---------------------------------
  C     -8.523777    2.917488    1.933246
  C     -7.411987    3.363466    2.002552
  C     -6.066284    3.903450    2.086576
  H     -9.508459    2.522095    1.872173
  H     -6.000971    4.870610    1.588418
  H     -5.346229    3.234961    1.614871
  H     -5.764404    4.040931    3.124784

 Multiplicity           Mult            ....    1
 Number of Electrons    NEL             ....   22
 Basis Dimension        Dim             ....   53

ORBITAL ENERGIES
----------------

  NO   OCC          E(Eh)            E(eV)
   0   2.0000     -10.458198      -284.5820
   1   2.0000     -10.449819      -284.3540
   2   2.0000     -10.434547      -283.9385
   3   2.0000      -0.872572       -23.7439
   4   2.0000      -0.786969       -21.4145
   5   2.0000      -0.594202       -16.1691
   6   2.0000      -0.515144       -14.0178
   7   2.0000      -0.491216       -13.3667
   8   2.0000      -0.491210       -13.3665
   9   2.0000      -0.315007        -8.5718
  10   2.0000      -0.315003        -8.5717
  11   0.0000       0.085544         2.3278
  12   0.0000       0.085549         2.3279
  13   0.0000       0.161211         4.3868
  14   0.0000       0.191095         5.2000
  15   0.0000       0.231016         6.2863

MULLIKEN ATOMIC CHARGES
-----------------------
   0 C :   -0.439681
   1 C :    0.237462
   2 C :   -0.772539
   3 H :    0.221624
   4 H :    0.251029
   5 H :    0.251038
   6 H :    0.251068
Sum of atomic charges:    0.0000000

LOEWDIN ATOMIC CHARGES
----------------------
   0 C :   -0.210898
   1 C :   -0.048513
   2 C :   -0.360704
   3 H :    0.160230
   4 H :    0.153284
   5 H :    0.153287
   6 H :    0.153313

  Mayer bond orders larger than 0.100000
B(  0-C ,  1-C ) :   2.7150 B(  0-C ,  3-H ) :   0.9468 B(  1-C ,  2-C ) :   0.9840
B(  2-C ,  4-H ) :   0.9084 B(  2-C ,  5-H ) :   0.9083 B(  2-C ,  6-H ) :   0.9083

Dispersion correction           -0.001828410
FINAL SINGLE POINT ENERGY      -116.384403242042

DIPOLE MOMENT
-------------
                                X             Y             Z
Electronic contribution:     -2.01586      -0.80877      -0.12625
Nuclear contribution   :      2.29166       0.91919       0.14379
                        -----------------------------------------
Total Dipole Moment    :      0.27580       0.11041       0.01754
                        -----------------------------------------
Magnitude (a.u.)       :      0.29760
Magnitude (Debye)      :      0.75644

Rotational constants in cm-1:     5.386808     0.287499     0.287498
Rotational constants in MHz : 161492.454277  8619.002993  8618.958585

                             ****ORCA TERMINATED NORMALLY****
TOTAL RUN TIME: 0 days 0 hours 0 minutes 54 seconds 742 msec
