                         Program Version 5.0.2 -  RELEASE  -
|  1> !PBE RI pcSseg-2 def2/J NMR
|  2>
|  3> *xyzfile 0 1 TMS.xyz
|  4>
|  5>
|  6>                          ****END OF INPUT****

CARTESIAN COORDINATES (ANGSTROEM)
---------------------------------
  Si    -2.021825    1.206620   -0.015103
  C     -0.732671    2.579515    0.092645
  C     -3.751585    1.958629    0.028090
  C     -1.794860    0.255736   -1.628519
  C     -1.803813    0.031602    1.444173
  H     -0.825221    3.278165   -0.740977
  H      0.280948    2.174278    0.071607
  H     -0.838182    3.153174    1.015667
  H     -3.900348    2.659688   -0.795610
  H     -3.926704    2.502589    0.958281
  H     -4.521680    1.189102   -0.052948
  H     -1.908452    0.911510   -2.494138
  H     -2.529852   -0.545612   -1.725172
  H     -0.803727   -0.198145   -1.688371
  H     -1.934832    0.549875    2.395945
  H     -0.807724   -0.415322    1.447631
  H     -2.528862   -0.784263    1.411679

 Total Charge           Charge          ....    0
 Multiplicity           Mult            ....    1
 Number of Electrons    NEL             ....   50
 Basis Dimension        Dim             ....  355

ORBITAL ENERGIES
----------------

  NO   OCC          E(Eh)            E(eV)
   0   2.0000     -65.363897     -1778.6421
   1   2.0000      -9.854159      -268.1453
   2   2.0000      -9.854070      -268.1429
   3   2.0000      -9.854058      -268.1426
   4   2.0000      -9.854040      -268.1420
   5   2.0000      -5.019328      -136.5829
   6   2.0000      -3.429263       -93.3150
   7   2.0000      -3.429257       -93.3148
   8   2.0000      -3.429226       -93.3140
   9   2.0000      -0.649615       -17.6769
  10   2.0000      -0.609143       -16.5756
  11   2.0000      -0.608961       -16.5707
  12   2.0000      -0.608955       -16.5705
  13   2.0000      -0.407894       -11.0994
  14   2.0000      -0.366770        -9.9803
  15   2.0000      -0.366702        -9.9785
  16   2.0000      -0.366649        -9.9770
  17   2.0000      -0.352193        -9.5837
  18   2.0000      -0.352009        -9.5786
  19   2.0000      -0.334784        -9.1099
  20   2.0000      -0.334762        -9.1093
  21   2.0000      -0.334711        -9.1079
  22   2.0000      -0.258561        -7.0358
  23   2.0000      -0.258339        -7.0298
  24   2.0000      -0.258282        -7.0282
  25   0.0000      -0.010420        -0.2836
  26   0.0000       0.028262         0.7691
  27   0.0000       0.028289         0.7698
  28   0.0000       0.028314         0.7705
  29   0.0000       0.046088         1.2541

MULLIKEN ATOMIC CHARGES
-----------------------
   0 Si:    0.591481
   1 C :   -0.293595
   2 C :   -0.293717
   3 C :   -0.294135
   4 C :   -0.292804
   5 H :    0.048323
   6 H :    0.048614
   7 H :    0.048748
   8 H :    0.048618
   9 H :    0.048729
  10 H :    0.048591
  11 H :    0.048520
  12 H :    0.048582
  13 H :    0.048825
  14 H :    0.048415
  15 H :    0.048283
  16 H :    0.048523
Sum of atomic charges:    0.0000000

LOEWDIN ATOMIC CHARGES
----------------------
   0 Si:    0.938154
   1 C :   -0.286064
   2 C :   -0.286084
   3 C :   -0.286129
   4 C :   -0.286154
   5 H :    0.017008
   6 H :    0.017254
   7 H :    0.017274
   8 H :    0.017295
   9 H :    0.017119
  10 H :    0.017210
  11 H :    0.017247
  12 H :    0.017116
  13 H :    0.017174
  14 H :    0.017104
  15 H :    0.017239
  16 H :    0.017238

  Mayer bond orders larger than 0.100000
B(  0-Si,  1-C ) :   0.9458 B(  0-Si,  2-C ) :   0.9454 B(  0-Si,  3-C ) :   0.9456
B(  0-Si,  4-C ) :   0.9455 B(  1-C ,  5-H ) :   0.9822 B(  1-C ,  6-H ) :   0.9821
B(  1-C ,  7-H ) :   0.9823 B(  2-C ,  8-H ) :   0.9822 B(  2-C ,  9-H ) :   0.9823
B(  2-C , 10-H ) :   0.9823 B(  3-C , 11-H ) :   0.9822 B(  3-C , 12-H ) :   0.9823
B(  3-C , 13-H ) :   0.9823 B(  4-C , 14-H ) :   0.9823 B(  4-C , 15-H ) :   0.9822
B(  4-C , 16-H ) :   0.9823

FINAL SINGLE POINT ENERGY      -448.880050879995

DIPOLE MOMENT
-------------
                                X             Y             Z
Electronic contribution:     -0.00846       0.00245       0.00785
Nuclear contribution   :      0.00732      -0.00204      -0.00741
                        -----------------------------------------
Total Dipole Moment    :     -0.00114       0.00041       0.00043
                        -----------------------------------------
Magnitude (a.u.)       :      0.00128
Magnitude (Debye)      :      0.00326

Rotational constants in cm-1:     0.102767     0.102459     0.102419
Rotational constants in MHz :  3080.877566  3071.647856  3070.434947

CHEMICAL SHIELDING SUMMARY (ppm)
--------------------------------

  Nucleus  Element    Isotropic     Anisotropy
  -------  -------  ------------   ------------
      0       Si         323.428          0.729
      1       C          181.493         10.428
      2       C          181.554         10.430
      3       C          181.495         10.470
      4       C          181.519         10.435
      5       H           31.490          9.343
      6       H           31.483          9.304
      7       H           31.475          9.312
      8       H           31.480          9.309
      9       H           31.483          9.358
     10       H           31.483          9.323
     11       H           31.481          9.302
     12       H           31.488          9.325
     13       H           31.483          9.337
     14       H           31.486          9.332
     15       H           31.486          9.301
     16       H           31.475          9.343

                             ****ORCA TERMINATED NORMALLY****
TOTAL RUN TIME: 0 days 0 hours 1 minutes 0 seconds 59 msec
