   * xtb version 6.5.1 (579679a) compiled by 'ehlert@majestix' on 2022-07-11
          program call               : xtb end.xyz --opt

   ID    Z sym.   atoms
    1    6 C      1, 2, 4-6
    2    8 O      3
    3    1 H      7-14

          :  Hamiltonian                  GFN2-xTB          :
 * total energy  :   -18.7818719 Eh     change       -0.2279066E-10 Eh
 * total energy  :   -18.7859007 Eh     change       -0.4028830E-02 Eh
 * total energy  :   -18.7867541 Eh     change       -0.8533831E-03 Eh
 * total energy  :   -18.7870829 Eh     change       -0.3288134E-03 Eh
 * total energy  :   -18.7873756 Eh     change       -0.2926917E-03 Eh
 * total energy  :   -18.7876654 Eh     change       -0.2897798E-03 Eh
 * total energy  :   -18.7878297 Eh     change       -0.1642946E-03 Eh
 * total energy  :   -18.7880415 Eh     change       -0.2117728E-03 Eh
 * total energy  :   -18.7882209 Eh     change       -0.1794700E-03 Eh
 * total energy  :   -18.7883576 Eh     change       -0.1366582E-03 Eh
 * total energy  :   -18.7894586 Eh     change       -0.3051415E-04 Eh
 * total energy  :   -18.7894652 Eh     change       -0.6653774E-05 Eh
 * total energy  :   -18.7894751 Eh     change       -0.9829664E-05 Eh
 * total energy  :   -18.7894867 Eh     change       -0.1162097E-04 Eh
 * total energy  :   -18.7894990 Eh     change       -0.1227465E-04 Eh
 * total energy  :   -18.7895121 Eh     change       -0.1308911E-04 Eh
 * total energy  :   -18.7895249 Eh     change       -0.1285985E-04 Eh
 * total energy  :   -18.7895325 Eh     change       -0.7619705E-05 Eh
 * total energy  :   -18.7895364 Eh     change       -0.3860448E-05 Eh
   *** GEOMETRY OPTIMIZATION CONVERGED AFTER 30 ITERATIONS ***

 final structure:
================
14
 xtb: 6.5.1 (579679a)
C           -7.40248741143421        0.49318915299113       -0.06794609261114
C           -8.04528408646573        1.71968395319421        0.51361251433173
O           -7.54339461611683        2.47770583310823        1.29206325848686
C           -4.40772340508210        2.37375103177549       -0.08033514012052
C           -5.13031336031801        1.39151961471354       -0.58193228315171
C           -5.90475546034689        0.40652155237776        0.23756689014256
H           -5.55431007174617       -0.60453308214569        0.01255777754761
H           -5.74583501852474        0.60438928665004        1.29822482259994
H           -7.93263668950443       -0.36671449137135        0.35400073637182
H           -7.58462361102761        0.48398172201000       -1.14556714739942
H           -9.08846778571356        1.86871596684020        0.16312779729296
H           -3.86965783070593        3.06466091823937       -0.70706015428724
H           -4.33134964796505        2.53119543096239        0.98247425129267
H           -5.20225100504872        1.25562311065459       -1.65455723049583

          :  Hamiltonian                  GFN2-xTB          :
         :: total energy             -18.789536397723 Eh    ::
         :: gradient norm              0.000296677004 Eh/a0 ::
         :: HOMO-LUMO gap              3.677862689030 eV    ::
         :: SCC energy               -19.063924643457 Eh    ::
         :: -> dispersion             -0.008018653580 Eh    ::
         :: repulsion energy           0.274371884194 Eh    ::

    * Orbital Energies and Occupations

         #    Occupation            Energy/Eh            Energy/eV
      -------------------------------------------------------------
         1        2.0000           -0.7195060             -19.5788
       ...           ...                  ...                  ...
         5        2.0000           -0.5803713             -15.7927
         6        2.0000           -0.5641799             -15.3521
         7        2.0000           -0.5544784             -15.0881
         8        2.0000           -0.5405131             -14.7081
         9        2.0000           -0.5245004             -14.2724
        10        2.0000           -0.5011299             -13.6364
        11        2.0000           -0.4943211             -13.4512
        12        2.0000           -0.4902322             -13.3399
        13        2.0000           -0.4627155             -12.5911
        14        2.0000           -0.4459165             -12.1340
        15        2.0000           -0.4288308             -11.6691
        16        2.0000           -0.4104658             -11.1693
        17        2.0000           -0.3969988             -10.8029 (HOMO)
        18                         -0.2618399              -7.1250 (LUMO)
        19                         -0.2007562              -5.4629
        20                          0.0692016               1.8831
        21                          0.1010048               2.7485
        22                          0.1211995               3.2980
        23                          0.1385439               3.7700
        24                          0.1505654               4.0971
        25                          0.1706524               4.6437
        26                          0.2004938               5.4557
        27                          0.2155799               5.8662
        28                          0.2360347               6.4228
       ...                                ...                  ...
        32                          0.6303427              17.1525
      -------------------------------------------------------------
                  HL-Gap            0.1351590 Eh            3.6779 eV

     #   Z          covCN         q      C6AA      α(0)
     1   6 C        3.804    -0.080    22.024     6.681
     2   6 C        2.756     0.216    23.432     7.927
     3   8 O        0.856    -0.316    20.065     6.006
     4   6 C        2.837    -0.089    30.219     9.009
     5   6 C        2.887    -0.028    28.687     8.781
     6   6 C        3.807    -0.056    21.577     6.613
     7   1 H        0.924     0.042     2.428     2.437
     8   1 H        0.924     0.060     2.201     2.320
     9   1 H        0.924     0.067     2.121     2.278
    10   1 H        0.924     0.061     2.182     2.310
    11   1 H        0.922     0.012     2.861     2.645
    12   1 H        0.926     0.036     2.500     2.472
    13   1 H        0.926     0.047     2.354     2.399
    14   1 H        0.925     0.027     2.631     2.537

Wiberg/Mayer (AO) data.
largest (>0.10) Wiberg bond orders for each atom

     #   Z sym  total        # sym  WBO       # sym  WBO       # sym  WBO
 ---------------------------------------------------------------------------
     1   6 C    3.997 --     2 C    1.012     6 C    0.992    10 H    0.953
                             9 H    0.939
     2   6 C    3.917 --     3 O    1.932     1 C    1.012    11 H    0.930
     3   8 O    2.102 --     2 C    1.932
     4   6 C    3.992 --     5 C    1.984    12 H    0.977    13 H    0.975
     5   6 C    3.991 --     4 C    1.984     6 C    1.024    14 H    0.966
     6   6 C    3.994 --     5 C    1.024     1 C    0.992     8 H    0.972
                             7 H    0.964
     7   1 H    0.998 --     6 C    0.964
     8   1 H    0.996 --     6 C    0.972
     9   1 H    0.995 --     1 C    0.939
    10   1 H    0.996 --     1 C    0.953
    11   1 H    1.000 --     2 C    0.930
    12   1 H    0.998 --     4 C    0.977
    13   1 H    0.998 --     4 C    0.975
    14   1 H    0.999 --     5 C    0.966
 ---------------------------------------------------------------------------

molecular dipole:
                 x           y           z       tot (Debye)
 q only:       -0.124      -0.791      -0.513
   full:       -0.301      -0.926      -0.672       3.008

           -------------------------------------------------
          | TOTAL ENERGY              -18.789536397723 Eh   |
          | GRADIENT NORM               0.000296677004 Eh/α |
          | HOMO-LUMO GAP               3.677862689030 eV   |
           -------------------------------------------------

 * finished run on 2023/06/13 at 16:46:11.914
