                         Program Version 5.0.2 -  RELEASE  -
|  1> ! PBEh-3c Opt
|  2>
|  3> *xyzfile 0 1 D.xyz
|  4>
|  5>                          ****END OF INPUT****
 Total Charge           Charge          ....    0
 Multiplicity           Mult            ....    1
 Number of Electrons    NEL             ....   40
Dispersion correction           -0.003351007
FINAL SINGLE POINT ENERGY      -262.466040993549
Dispersion correction            ... done
Dispersion correction           -0.003386794
FINAL SINGLE POINT ENERGY      -262.468389260065
Dispersion correction            ... done
Dispersion correction           -0.003393413
FINAL SINGLE POINT ENERGY      -262.468524648786
Dispersion correction            ... done
FINAL SINGLE POINT ENERGY      -262.468556593153
FINAL SINGLE POINT ENERGY      -262.468573002359
FINAL SINGLE POINT ENERGY      -262.468574964130
Dispersion correction            ... done
Dispersion correction           -0.003393636
FINAL SINGLE POINT ENERGY      -262.468576368998
Dispersion correction            ... done
Dispersion correction           -0.003393841
FINAL SINGLE POINT ENERGY      -262.468576893495
Dispersion correction            ... done
                    ***********************HURRAY********************

CARTESIAN COORDINATES (ANGSTROEM)
---------------------------------
  C     -7.057334    3.989369    2.699594
  C     -5.912888    4.753676    2.342589
  C     -4.803490    4.178479    1.871094
  C     -3.659306    4.942888    1.513553
  H     -5.982842    5.826501    2.469492
  H     -4.733801    3.105615    1.744391
  N     -2.723041    5.544560    1.218789
  N     -7.994858    3.387872    2.990668

 Multiplicity           Mult            ....    1
 Number of Electrons    NEL             ....   40
 Basis Dimension        Dim             ....   94

ORBITAL ENERGIES
----------------

  NO   OCC          E(Eh)            E(eV)
   0   2.0000     -14.680473      -399.4760
   1   2.0000     -14.680468      -399.4758
   2   2.0000     -10.546956      -286.9973
   3   2.0000     -10.546017      -286.9717
   4   2.0000     -10.522447      -286.3303
   5   2.0000     -10.522391      -286.3288
   6   2.0000      -1.050003       -28.5720
   7   2.0000      -1.043898       -28.4059
   8   2.0000      -0.964979       -26.2584
   9   2.0000      -0.813903       -22.1474
  10   2.0000      -0.659026       -17.9330
  11   2.0000      -0.635264       -17.2864
  12   2.0000      -0.542045       -14.7498
  13   2.0000      -0.487089       -13.2544
  14   2.0000      -0.462460       -12.5842
  15   2.0000      -0.455862       -12.4046
  16   2.0000      -0.443085       -12.0570
  17   2.0000      -0.425433       -11.5766
  18   2.0000      -0.418459       -11.3868
  19   2.0000      -0.357394        -9.7252
  20   0.0000      -0.092792        -2.5250
  21   0.0000       0.028010         0.7622
  22   0.0000       0.035878         0.9763
  23   0.0000       0.097048         2.6408
  24   0.0000       0.137409         3.7391

MULLIKEN ATOMIC CHARGES
-----------------------
   0 C :    0.073947
   1 C :   -0.231887
   2 C :   -0.231942
   3 C :    0.073966
   4 H :    0.311878
   5 H :    0.311890
   6 N :   -0.153929
   7 N :   -0.153924
Sum of atomic charges:    0.0000000

LOEWDIN ATOMIC CHARGES
----------------------
   0 C :   -0.018801
   1 C :   -0.119084
   2 C :   -0.119094
   3 C :   -0.018786
   4 H :    0.181167
   5 H :    0.181176
   6 N :   -0.043288
   7 N :   -0.043290

  Mayer bond orders larger than 0.100000
B(  0-C ,  1-C ) :   1.0429 B(  0-C ,  7-N ) :   3.1177 B(  1-C ,  2-C ) :   1.7613
B(  1-C ,  4-H ) :   0.8815 B(  2-C ,  3-C ) :   1.0429 B(  2-C ,  5-H ) :   0.8815
B(  3-C ,  6-N ) :   3.1177

Dispersion correction           -0.003393967
FINAL SINGLE POINT ENERGY      -262.468577100991

DIPOLE MOMENT
-------------
                                X             Y             Z
Electronic contribution:      0.00038       0.00001       0.00046
Nuclear contribution   :      0.00034      -0.00016       0.00175
                        -----------------------------------------
Total Dipole Moment    :      0.00072      -0.00015       0.00221
                        -----------------------------------------
Magnitude (a.u.)       :      0.00233
Magnitude (Debye)      :      0.00592

Rotational constants in cm-1:     1.564998     0.049996     0.048448
Rotational constants in MHz : 46917.466014  1498.839737  1452.440541

                             ****ORCA TERMINATED NORMALLY****
TOTAL RUN TIME: 0 days 0 hours 3 minutes 50 seconds 843 msec
