   * xtb version 6.5.1 (579679a) compiled by 'ehlert@majestix' on 2022-07-11
          program call               : xtb end.xyz --opt

   ID    Z sym.   atoms
    1    6 C      1-5, 12-16
    2    1 H      6-11, 17-22

          :  Hamiltonian                  GFN2-xTB          :
 * total energy  :   -27.4881048 Eh     change       -0.1614673E-09 Eh
 * total energy  :   -27.4977711 Eh     change       -0.9666323E-02 Eh
 * total energy  :   -27.4995127 Eh     change       -0.1741568E-02 Eh
 * total energy  :   -27.4999015 Eh     change       -0.3888061E-03 Eh
 * total energy  :   -27.5000173 Eh     change       -0.1158219E-03 Eh
 * total energy  :   -27.5000347 Eh     change       -0.1737742E-04 Eh
 * total energy  :   -27.5000407 Eh     change       -0.6055804E-05 Eh
 * total energy  :   -27.5000426 Eh     change       -0.1858319E-05 Eh
   *** GEOMETRY OPTIMIZATION CONVERGED AFTER 8 ITERATIONS ***

 final structure:
================
22
 xtb: 6.5.1 (579679a)
C           -3.75465935295868        0.20470761834710        0.66943402102467
C           -3.25464697695117        0.08921566872602       -0.77475387023240
C           -2.08444987786276        1.03639308743216       -0.73073255062603
C           -1.55558482973825        0.95898012449356        0.48268997182729
C           -2.36460559921347       -0.03896322151618        1.27077663726449
H           -4.48732634413732       -0.55436981867595        0.94079831068370
H           -4.14775047386256        1.19413372671375        0.90103641460250
H           -3.97604607533832        0.25166863987742       -1.57208332671250
H           -1.73416527254929        1.60157536370831       -1.57500479852956
H           -0.68072844198063        1.45858630524354        0.85671947256208
H           -2.27140948228547        0.01975271266543        2.35329206673013
C           -2.64366643543689       -1.34129002024744       -0.74504430869350
C           -2.05272810435480       -1.43977826545835        0.68382914937767
C           -0.56233609644181       -1.77547379980260        0.51363120229253
C           -0.34892371317770       -1.75083741637346       -0.97008775022391
C           -1.46490476603285       -1.53731338909419       -1.64509367381552
H           -3.42610858788436       -2.07999595982903       -0.93945047530849
H           -2.55982312030911       -2.19835848130231        1.28225650972833
H           -0.32449434817505       -2.76368455678122        0.91624309224734
H            0.08204005573769       -1.05395005775215        1.01908775765798
H            0.62878249774416       -1.90799878815162       -1.39393585409697
H           -1.56060465479135       -1.48437947222282       -2.71611799775986

          :  Hamiltonian                  GFN2-xTB          :
         :: total energy             -27.500042577850 Eh    ::
         :: gradient norm              0.000426753674 Eh/a0 ::
         :: HOMO-LUMO gap              4.957371271131 eV    ::
         :: SCC energy               -27.950075849076 Eh    ::
         :: -> dispersion             -0.020680229368 Eh    ::
         :: repulsion energy           0.449919552348 Eh    ::

    * Orbital Energies and Occupations

         #    Occupation            Energy/Eh            Energy/eV
      -------------------------------------------------------------
         1        2.0000           -0.6530265             -17.7698
       ...           ...                  ...                  ...
        14        2.0000           -0.4836536             -13.1609
        15        2.0000           -0.4712490             -12.8233
        16        2.0000           -0.4611402             -12.5483
        17        2.0000           -0.4563950             -12.4191
        18        2.0000           -0.4494340             -12.2297
        19        2.0000           -0.4420249             -12.0281
        20        2.0000           -0.4391215             -11.9491
        21        2.0000           -0.4361004             -11.8669
        22        2.0000           -0.4266644             -11.6101
        23        2.0000           -0.4255630             -11.5802
        24        2.0000           -0.4163121             -11.3284
        25        2.0000           -0.3822843             -10.4025
        26        2.0000           -0.3805206             -10.3545 (HOMO)
        27                         -0.1983405              -5.3971 (LUMO)
        28                         -0.1940522              -5.2804
        29                          0.0383076               1.0424
        30                          0.0522111               1.4207
        31                          0.0563672               1.5338
        32                          0.0937961               2.5523
        33                          0.1042698               2.8373
        34                          0.1069750               2.9109
        35                          0.1179859               3.2106
        36                          0.1259305               3.4267
        37                          0.1405372               3.8242
       ...                                ...                  ...
        52                          0.6782666              18.4566
      -------------------------------------------------------------
                  HL-Gap            0.1821800 Eh            4.9574 eV

     #   Z          covCN         q      C6AA      α(0)
     1   6 C        3.923    -0.057    21.527     6.594
     2   6 C        4.028    -0.016    20.780     6.476
     3   6 C        2.992    -0.038    28.923     8.822
     4   6 C        2.993    -0.038    28.943     8.825
     5   6 C        4.028    -0.018    20.818     6.481
     6   1 H        0.925     0.030     2.592     2.518
     7   1 H        0.925     0.032     2.563     2.504
     8   1 H        0.925     0.025     2.658     2.549
     9   1 H        0.926     0.026     2.643     2.542
    10   1 H        0.926     0.025     2.664     2.552
    11   1 H        0.925     0.024     2.672     2.556
    12   6 C        3.933    -0.020    20.870     6.492
    13   6 C        3.921    -0.022    20.910     6.499
    14   6 C        3.836    -0.058    21.588     6.610
    15   6 C        2.936    -0.039    28.968     8.827
    16   6 C        2.931    -0.041    29.023     8.835
    17   1 H        0.924     0.031     2.579     2.511
    18   1 H        0.924     0.027     2.634     2.538
    19   1 H        0.924     0.035     2.512     2.479
    20   1 H        0.924     0.041     2.430     2.438
    21   1 H        0.926     0.026     2.645     2.543
    22   1 H        0.926     0.026     2.639     2.540

Wiberg/Mayer (AO) data.
largest (>0.10) Wiberg bond orders for each atom

     #   Z sym  total        # sym  WBO       # sym  WBO       # sym  WBO
 ---------------------------------------------------------------------------
     1   6 C    3.995 --     2 C    0.988     5 C    0.987     6 H    0.978
                             7 H    0.978
     2   6 C    3.993 --     3 C    1.013     1 C    0.988     8 H    0.973
                            12 C    0.940
     3   6 C    3.987 --     4 C    1.920     2 C    1.013     9 H    0.972
     4   6 C    3.987 --     3 C    1.920     5 C    1.012    10 H    0.972
     5   6 C    3.993 --     4 C    1.012     1 C    0.987    11 H    0.973
                            13 C    0.960
     6   1 H    0.999 --     1 C    0.978
     7   1 H    0.999 --     1 C    0.978
     8   1 H    0.999 --     2 C    0.973
     9   1 H    0.999 --     3 C    0.972
    10   1 H    0.999 --     4 C    0.972
    11   1 H    0.999 --     5 C    0.973
    12   6 C    3.994 --    16 C    1.017    13 C    0.984    17 H    0.959
                             2 C    0.940
    13   6 C    3.994 --    14 C    0.995    12 C    0.984    18 H    0.974
                             5 C    0.960
    14   6 C    3.998 --    15 C    1.024    13 C    0.995    19 H    0.964
                            20 H    0.963
    15   6 C    3.990 --    16 C    1.925    14 C    1.024    21 H    0.970
    16   6 C    3.990 --    15 C    1.925    12 C    1.017    22 H    0.969
    17   1 H    0.999 --    12 C    0.959
    18   1 H    0.999 --    13 C    0.974
    19   1 H    0.999 --    14 C    0.964
    20   1 H    0.998 --    14 C    0.963
    21   1 H    0.999 --    15 C    0.970
    22   1 H    0.999 --    16 C    0.969
 ---------------------------------------------------------------------------

molecular dipole:
                 x           y           z       tot (Debye)
 q only:       -0.066      -0.076       0.117
   full:       -0.060      -0.113       0.114       0.437

           -------------------------------------------------
          | TOTAL ENERGY              -27.500042577850 Eh   |
          | GRADIENT NORM               0.000426753674 Eh/α |
          | HOMO-LUMO GAP               4.957371271131 eV   |
           -------------------------------------------------

 * finished run on 2023/06/13 at 15:45:13.205
