                         Program Version 5.0.2 -  RELEASE  -
|  1> ! RHF CCSD(T) def2-TZVP TightSCF
|  2>
|  3> %paras R= 4.0,0.5,35 end
|  4>
|  5> * xyz 0 1
|  6> H 0 0 0
|  7> F 0 0 {R}
|  8> **                         ****END OF INPUT****
 Total Charge           Charge          ....    0
 Multiplicity           Mult            ....    1
 Number of Electrons    NEL             ....   10
 Basis Dimension        Dim             ....   37

ORBITAL ENERGIES
----------------

  NO   OCC          E(Eh)            E(eV)
   0   2.0000     -26.218404      -713.4391
   1   2.0000      -1.419727       -38.6327
   2   2.0000      -0.545124       -14.8336
   3   2.0000      -0.545124       -14.8336
   4   2.0000      -0.375674       -10.2226
   5   0.0000      -0.234859        -6.3908
   6   0.0000       0.295457         8.0398
   7   0.0000       0.746110        20.3027
   8   0.0000       0.788668        21.4608
   9   0.0000       0.788668        21.4608

E(0)                                       ...    -99.643491382
E(0)                                       ...    -99.643491382
E(CORR)                                    ...     -0.446776976
E(TOT)                                     ...   -100.090268359
E(CCSD(T))                                 ...   -100.187040082

MULLIKEN ATOMIC CHARGES
-----------------------
   0 H :   -0.525207
   1 F :    0.525207
Sum of atomic charges:   -0.0000000

LOEWDIN ATOMIC CHARGES
----------------------
   0 H :   -0.525462
   1 F :    0.525462

  Mayer bond orders larger than 0.100000
B(  0-H ,  1-F ) :   1.2805

FINAL SINGLE POINT ENERGY      -100.187040082336
E(0)                                       ...    -99.646546510
FINAL SINGLE POINT ENERGY      -100.185970775620
FINAL SINGLE POINT ENERGY      -100.184667717478
FINAL SINGLE POINT ENERGY      -100.183102540093
FINAL SINGLE POINT ENERGY      -100.181237022315
FINAL SINGLE POINT ENERGY      -100.179069388383
FINAL SINGLE POINT ENERGY      -100.176554533550
FINAL SINGLE POINT ENERGY      -100.173689850190
FINAL SINGLE POINT ENERGY      -100.170477446897
FINAL SINGLE POINT ENERGY      -100.166942562206
FINAL SINGLE POINT ENERGY      -100.237779835989
FINAL SINGLE POINT ENERGY      -100.261913006195
FINAL SINGLE POINT ENERGY      -100.287189289892
FINAL SINGLE POINT ENERGY      -100.311585472815
FINAL SINGLE POINT ENERGY      -100.331272080542
FINAL SINGLE POINT ENERGY      -100.338912618560
FINAL SINGLE POINT ENERGY      -100.320291933252
FINAL SINGLE POINT ENERGY      -100.247802451149
E(CCSD(T))                                 ...   -100.064462482
FINAL SINGLE POINT ENERGY      -100.064462481526

CARTESIAN COORDINATES (ANGSTROEM)
---------------------------------
  H      0.000000    0.000000    0.000000
  F      0.000000    0.000000    0.500000

E(0)                                       ...    -99.386295432
E(0)                                       ...    -99.386295432
E(CORR)                                    ...     -0.252107673
E(TOT)                                     ...    -99.638403105
E(CCSD(T))                                 ...    -99.642668247
FINAL SINGLE POINT ENERGY       -99.642668246569

DIPOLE MOMENT
-------------
                                X             Y             Z
Electronic contribution:      0.00000      -0.00000      -0.04083
Nuclear contribution   :      0.00000       0.00000      -0.46879
                        -----------------------------------------
Total Dipole Moment    :      0.00000      -0.00000      -0.50962
                        -----------------------------------------
Magnitude (a.u.)       :      0.50962
Magnitude (Debye)      :      1.29535

Rotational constants in cm-1:     0.000000    70.444768    70.444768
Rotational constants in MHz :     0.000000 2111881.006407 2111881.006407

                             ****ORCA TERMINATED NORMALLY****
TOTAL RUN TIME: 0 days 0 hours 58 minutes 13 seconds 310 msec
