                         Program Version 5.0.2 -  RELEASE  -
|  1> ! PBEh-3c Opt
|  2>
|  3> *xyzfile 0 1 B.xyz
|  4>
|  5>                          ****END OF INPUT****
 Total Charge           Charge          ....    0
 Multiplicity           Mult            ....    1
 Number of Electrons    NEL             ....   42
Dispersion correction           -0.007647868
FINAL SINGLE POINT ENERGY      -197.337495621007
Dispersion correction            ... done
Dispersion correction           -0.007707651
FINAL SINGLE POINT ENERGY      -197.340865982514
Dispersion correction            ... done
Dispersion correction           -0.007704545
FINAL SINGLE POINT ENERGY      -197.340920209595
Dispersion correction            ... done
Dispersion correction           -0.007699840
FINAL SINGLE POINT ENERGY      -197.340943284064
Dispersion correction            ... done
                    ***********************HURRAY********************

CARTESIAN COORDINATES (ANGSTROEM)
---------------------------------
  C     -3.219132    1.096831    0.601754
  C     -2.394521   -0.189551    0.591078
  C     -4.703236    0.753316    0.474890
  C     -2.800184    1.982588   -0.571678
  C     -2.979984    1.843753    1.913594
  H     -2.546197   -0.753398   -0.331986
  H     -2.665824   -0.842295    1.423503
  H     -1.326557    0.023284    0.674715
  H     -4.909767    0.221834   -0.456379
  H     -5.320154    1.654338    0.483692
  H     -5.036256    0.117988    1.298192
  H     -2.960008    1.478617   -1.527036
  H     -1.742640    2.247582   -0.511203
  H     -3.372949    2.912002   -0.589004
  H     -3.558687    2.768740    1.952698
  H     -1.927180    2.106865    2.034666
  H     -3.268994    1.236717    2.774043

 Multiplicity           Mult            ....    1
 Number of Electrons    NEL             ....   42
 Basis Dimension        Dim             ....   99

ORBITAL ENERGIES
----------------

  NO   OCC          E(Eh)            E(eV)
   0   2.0000     -10.447622      -284.2942
   1   2.0000     -10.417763      -283.4817
   2   2.0000     -10.417739      -283.4811
   3   2.0000     -10.417715      -283.4804
   4   2.0000     -10.417620      -283.4778
   5   2.0000      -0.912619       -24.8336
   6   2.0000      -0.761794       -20.7295
   7   2.0000      -0.761641       -20.7253
   8   2.0000      -0.761631       -20.7250
   9   2.0000      -0.598147       -16.2764
  10   2.0000      -0.504414       -13.7258
  11   2.0000      -0.504171       -13.7192
  12   2.0000      -0.504066       -13.7163
  13   2.0000      -0.451230       -12.2786
  14   2.0000      -0.451059       -12.2739
  15   2.0000      -0.410417       -11.1680
  16   2.0000      -0.410372       -11.1668
  17   2.0000      -0.410332       -11.1657
  18   2.0000      -0.365592        -9.9483
  19   2.0000      -0.365393        -9.9429
  20   2.0000      -0.365336        -9.9413
  21   0.0000       0.118874         3.2347
  22   0.0000       0.186841         5.0842
  23   0.0000       0.186974         5.0878
  24   0.0000       0.187116         5.0917
  25   0.0000       0.217465         5.9175

MULLIKEN ATOMIC CHARGES
-----------------------
   0 C :   -0.106985
   1 C :   -0.608124
   2 C :   -0.607917
   3 C :   -0.607425
   4 C :   -0.607357
   5 H :    0.211578
   6 H :    0.211514
   7 H :    0.211462
   8 H :    0.211551
   9 H :    0.211480
  10 H :    0.211546
  11 H :    0.211509
  12 H :    0.211437
  13 H :    0.211396
  14 H :    0.211394
  15 H :    0.211511
  16 H :    0.211429
Sum of atomic charges:   -0.0000000

LOEWDIN ATOMIC CHARGES
----------------------
   0 C :   -0.114451
   1 C :   -0.343864
   2 C :   -0.343857
   3 C :   -0.343726
   4 C :   -0.343674
   5 H :    0.124130
   6 H :    0.124136
   7 H :    0.124121
   8 H :    0.124136
   9 H :    0.124126
  10 H :    0.124137
  11 H :    0.124135
  12 H :    0.124111
  13 H :    0.124160
  14 H :    0.124123
  15 H :    0.124153
  16 H :    0.124104

  Mayer bond orders larger than 0.100000
B(  0-C ,  1-C ) :   0.9814 B(  0-C ,  2-C ) :   0.9815 B(  0-C ,  3-C ) :   0.9816
B(  0-C ,  4-C ) :   0.9816 B(  1-C ,  5-H ) :   0.9305 B(  1-C ,  6-H ) :   0.9304
B(  1-C ,  7-H ) :   0.9303 B(  2-C ,  8-H ) :   0.9304 B(  2-C ,  9-H ) :   0.9303
B(  2-C , 10-H ) :   0.9304 B(  3-C , 11-H ) :   0.9304 B(  3-C , 12-H ) :   0.9304
B(  3-C , 13-H ) :   0.9303 B(  4-C , 14-H ) :   0.9303 B(  4-C , 15-H ) :   0.9304
B(  4-C , 16-H ) :   0.9303

Dispersion correction           -0.007699765
FINAL SINGLE POINT ENERGY      -197.340943304283

DIPOLE MOMENT
-------------
                                X             Y             Z
Electronic contribution:      0.00194      -0.00313      -0.00218
Nuclear contribution   :     -0.00178       0.00283       0.00216
                        -----------------------------------------
Total Dipole Moment    :      0.00017      -0.00030      -0.00002
                        -----------------------------------------
Magnitude (a.u.)       :      0.00035
Magnitude (Debye)      :      0.00088

Rotational constants in cm-1:     0.149186     0.149078     0.149039
Rotational constants in MHz :  4472.480842  4469.239566  4468.087434

                             ****ORCA TERMINATED NORMALLY****
TOTAL RUN TIME: 0 days 0 hours 3 minutes 41 seconds 368 msec
