                         Program Version 5.0.2 -  RELEASE  -
|  1> !PBE RI pcSseg-2 def2/J NMR
|  2> ! CPCM(Water)
|  3>
|  4> *xyzfile 0 1 Acetone.xyz
|  5>
|  6>
|  7>                          ****END OF INPUT****

CARTESIAN COORDINATES (ANGSTROEM)
---------------------------------
  C     -7.105751    1.388171   -0.000001
  C     -5.857263    2.235131   -0.000010
  C     -4.518438    1.538758   -0.000000
  O     -5.927673    3.444418   -0.000003
  H     -6.900425    0.320958    0.000005
  H     -7.711200    1.626790   -0.876247
  H     -7.711196    1.626801    0.876246
  H     -4.598928    0.455045   -0.000010
  H     -3.945359    1.846381    0.876389
  H     -3.945338    1.846397   -0.876370

 Total Charge           Charge          ....    0
 Multiplicity           Mult            ....    1
 Number of Electrons    NEL             ....   32
 Basis Dimension        Dim             ....  228

ORBITAL ENERGIES
----------------

  NO   OCC          E(Eh)            E(eV)
   0   2.0000     -18.739131      -509.9177
   1   2.0000      -9.974162      -271.4108
   2   2.0000      -9.875976      -268.7390
   3   2.0000      -9.875955      -268.7384
   4   2.0000      -0.961969       -26.1765
   5   2.0000      -0.692243       -18.8369
   6   2.0000      -0.640136       -17.4190
   7   2.0000      -0.477915       -13.0047
   8   2.0000      -0.411292       -11.1918
   9   2.0000      -0.409164       -11.1339
  10   2.0000      -0.405869       -11.0443
  11   2.0000      -0.355701        -9.6791
  12   2.0000      -0.351831        -9.5738
  13   2.0000      -0.325425        -8.8553
  14   2.0000      -0.310332        -8.4446
  15   2.0000      -0.214073        -5.8252
  16   0.0000      -0.064627        -1.7586
  17   0.0000       0.006190         0.1684
  18   0.0000       0.043825         1.1925
  19   0.0000       0.056256         1.5308
  20   0.0000       0.074691         2.0325

MULLIKEN ATOMIC CHARGES
-----------------------
   0 C :   -0.098839
   1 C :    0.250290
   2 C :   -0.098582
   3 O :   -0.437326
   4 H :    0.050755
   5 H :    0.070794
   6 H :    0.070794
   7 H :    0.050763
   8 H :    0.070676
   9 H :    0.070675
Sum of atomic charges:    0.0000000

LOEWDIN ATOMIC CHARGES
----------------------
   0 C :   -0.057075
   1 C :   -0.102513
   2 C :   -0.056990
   3 O :   -0.071441
   4 H :    0.038567
   5 H :    0.052779
   6 H :    0.052779
   7 H :    0.038514
   8 H :    0.052690
   9 H :    0.052689

  Mayer bond orders larger than 0.100000
B(  0-C ,  1-C ) :   0.9653 B(  0-C ,  4-H ) :   0.9858 B(  0-C ,  5-H ) :   0.9762
B(  0-C ,  6-H ) :   0.9762 B(  1-C ,  2-C ) :   0.9653 B(  1-C ,  3-O ) :   1.9618
B(  2-C ,  7-H ) :   0.9858 B(  2-C ,  8-H ) :   0.9762 B(  2-C ,  9-H ) :   0.9762

FINAL SINGLE POINT ENERGY      -192.997600869004

DIPOLE MOMENT
-------------
                                X             Y             Z
Electronic contribution:     -0.19663       3.37293      -0.00003
Nuclear contribution   :      0.28121      -4.84042       0.00003
                        -----------------------------------------
Total Dipole Moment    :      0.08458      -1.46749       0.00000
                        -----------------------------------------
Magnitude (a.u.)       :      1.46992
Magnitude (Debye)      :      3.73625

Rotational constants in cm-1:     0.348199     0.278838     0.164180
Rotational constants in MHz : 10438.737035  8359.350471  4921.979285

CHEMICAL SHIELDING SUMMARY (ppm)
--------------------------------

  Nucleus  Element    Isotropic     Anisotropy
  -------  -------  ------------   ------------
      0       C          149.170         56.761
      1       C          -47.576       -108.665
      2       C          149.151         56.727
      3       O         -286.383       -803.310
      4       H           28.724          3.616
      5       H           29.357          6.041
      6       H           29.357          6.041
      7       H           28.730          3.613
      8       H           29.364          6.034
      9       H           29.364          6.034

                             ****ORCA TERMINATED NORMALLY****
TOTAL RUN TIME: 0 days 0 hours 0 minutes 45 seconds 841 msec
