                         Program Version 5.0.2 -  RELEASE  -
|  1> !PBE RI pcSseg-2 def2/J NMR
|  2>
|  3> *xyzfile 0 1 OPT_F.xyz
|  4>
|  5>
|  6>                          ****END OF INPUT****

CARTESIAN COORDINATES (ANGSTROEM)
---------------------------------
  C     -6.914805   -1.090402   -5.449257
  C     -5.736593   -1.008206   -4.483126
  C     -5.157671    0.381097   -4.669820
  C     -6.968635    0.261579   -6.135080
  N     -5.926176    1.009858   -5.627751
  O     -4.217364    0.867628   -4.108309
  O     -7.752243    0.636045   -6.960849
  H     -7.868247   -1.275344   -4.954060
  H     -6.799034   -1.867347   -6.205354
  H     -4.960348   -1.746987   -4.683805
  H     -6.025622   -1.134660   -3.439455
  H     -5.744772    1.956448   -5.928643

 Total Charge           Charge          ....    0
 Multiplicity           Mult            ....    1
 Number of Electrons    NEL             ....   52
 Basis Dimension        Dim             ....  322

ORBITAL ENERGIES
----------------

  NO   OCC          E(Eh)            E(eV)
   0   2.0000     -18.744100      -510.0529
   1   2.0000     -18.744069      -510.0521
   2   2.0000     -14.045062      -382.1856
   3   2.0000     -10.005270      -272.2572
   4   2.0000     -10.005240      -272.2564
   5   2.0000      -9.916037      -269.8291
   6   2.0000      -9.915908      -269.8256
   7   2.0000      -0.995879       -27.0992
   8   2.0000      -0.977023       -26.5861
   9   2.0000      -0.887834       -24.1592
  10   2.0000      -0.746994       -20.3268
  11   2.0000      -0.642775       -17.4908
  12   2.0000      -0.574817       -15.6416
  13   2.0000      -0.573790       -15.6136
  14   2.0000      -0.470495       -12.8028
  15   2.0000      -0.443822       -12.0770
  16   2.0000      -0.416860       -11.3433
  17   2.0000      -0.406721       -11.0674
  18   2.0000      -0.390634       -10.6297
  19   2.0000      -0.387647       -10.5484
  20   2.0000      -0.378053       -10.2874
  21   2.0000      -0.374910       -10.2018
  22   2.0000      -0.320509        -8.7215
  23   2.0000      -0.272543        -7.4163
  24   2.0000      -0.254492        -6.9251
  25   2.0000      -0.226426        -6.1614
  26   0.0000      -0.065361        -1.7786
  27   0.0000      -0.028658        -0.7798
  28   0.0000      -0.016701        -0.4545
  29   0.0000       0.013576         0.3694
  30   0.0000       0.030829         0.8389

MULLIKEN ATOMIC CHARGES
-----------------------
   0 C :   -0.048594
   1 C :   -0.048679
   2 C :    0.265053
   3 C :    0.265019
   4 N :   -0.187198
   5 O :   -0.353951
   6 O :   -0.353860
   7 H :    0.072203
   8 H :    0.072409
   9 H :    0.072197
  10 H :    0.072425
  11 H :    0.172976
Sum of atomic charges:    0.0000000

LOEWDIN ATOMIC CHARGES
----------------------
   0 C :   -0.026849
   1 C :   -0.026930
   2 C :   -0.175047
   3 C :   -0.174903
   4 N :    0.206022
   5 O :   -0.015661
   6 O :   -0.015621
   7 H :    0.048858
   8 H :    0.049096
   9 H :    0.048916
  10 H :    0.049122
  11 H :    0.032997

  Mayer bond orders larger than 0.100000
B(  0-C ,  1-C ) :   0.9854 B(  0-C ,  3-C ) :   0.9443 B(  0-C ,  7-H ) :   0.9686
B(  0-C ,  8-H ) :   0.9677 B(  1-C ,  2-C ) :   0.9443 B(  1-C ,  9-H ) :   0.9682
B(  1-C , 10-H ) :   0.9679 B(  2-C ,  4-N ) :   1.1218 B(  2-C ,  5-O ) :   2.0326
B(  3-C ,  4-N ) :   1.1217 B(  3-C ,  6-O ) :   2.0327 B(  4-N , 11-H ) :   0.9466

FINAL SINGLE POINT ENERGY      -360.411058715732

DIPOLE MOMENT
-------------
                                X             Y             Z
Electronic contribution:      0.73724       3.85481      -1.22635
Nuclear contribution   :     -0.87053      -4.58102       1.45020
                        -----------------------------------------
Total Dipole Moment    :     -0.13328      -0.72621       0.22384
                        -----------------------------------------
Magnitude (a.u.)       :      0.77153
Magnitude (Debye)      :      1.96106

Rotational constants in cm-1:     0.199573     0.076287     0.056329
Rotational constants in MHz :  5983.058266  2287.034537  1688.698861

CHEMICAL SHIELDING SUMMARY (ppm)
--------------------------------

  Nucleus  Element    Isotropic     Anisotropy
  -------  -------  ------------   ------------
      0       C          147.801         36.140
      1       C          147.944         36.123
      2       C           -0.486       -134.802
      3       C           -0.512       -134.833
      4       N           53.779         79.969
      5       O         -126.343       -529.425
      6       O         -126.376       -529.645
      7       H           28.888          6.919
      8       H           28.875          6.940
      9       H           28.886          6.934
     10       H           28.887          6.951
     11       H           24.728          2.466

                             ****ORCA TERMINATED NORMALLY****
TOTAL RUN TIME: 0 days 0 hours 0 minutes 54 seconds 825 msec
