                         Program Version 5.0.2 -  RELEASE  -
|  1> ! PBEh-3c Opt
|  2>
|  3> *xyzfile 1 1 Ar-4.xyz
|  4>
|  5>                          ****END OF INPUT****
 Total Charge           Charge          ....    1
 Multiplicity           Mult            ....    1
 Number of Electrons    NEL             ....   48
Dispersion correction           -0.007314853
FINAL SINGLE POINT ENERGY      -270.020327288628
Dispersion correction            ... done
Dispersion correction           -0.007432881
FINAL SINGLE POINT ENERGY      -270.047507624268
Dispersion correction            ... done
Dispersion correction           -0.007473017
FINAL SINGLE POINT ENERGY      -270.051014185217
Dispersion correction            ... done
FINAL SINGLE POINT ENERGY      -270.051456438309
FINAL SINGLE POINT ENERGY      -270.051534261372
Dispersion correction            ... done
Dispersion correction           -0.007449165
FINAL SINGLE POINT ENERGY      -270.051549314123
Dispersion correction            ... done
Dispersion correction           -0.007450072
FINAL SINGLE POINT ENERGY      -270.051551099901
Dispersion correction            ... done
                    ***********************HURRAY********************

CARTESIAN COORDINATES (ANGSTROEM)
---------------------------------
  C      3.513574  -16.925106   -3.084155
  C      2.210886  -17.061252   -2.620868
  C      4.261868  -15.764700   -3.235570
  C      3.893299  -14.454176   -2.959211
  C      2.684106  -13.979796   -2.466776
  C      1.544713  -14.699098   -2.128835
  C      1.334422  -16.070666   -2.196515
  H      4.648700  -13.702782   -3.154250
  H      2.621239  -12.907361   -2.328220
  H      0.710584  -14.113240   -1.762335
  H      0.358025  -16.412744   -1.875566
  H      1.827978  -18.073939   -2.586509
  H      4.011275  -17.845662   -3.363825
  H      5.266352  -15.899537   -3.617864

 Multiplicity           Mult            ....    1
 Number of Electrons    NEL             ....   48
 Basis Dimension        Dim             ....  119

ORBITAL ENERGIES
----------------

  NO   OCC          E(Eh)            E(eV)
   0   2.0000     -10.679081      -290.5926
   1   2.0000     -10.678945      -290.5889
   2   2.0000     -10.678939      -290.5887
   3   2.0000     -10.678410      -290.5743
   4   2.0000     -10.678401      -290.5741
   5   2.0000     -10.678022      -290.5637
   6   2.0000     -10.678006      -290.5633
   7   2.0000      -1.165260       -31.7083
   8   2.0000      -1.087698       -29.5978
   9   2.0000      -1.087682       -29.5973
  10   2.0000      -0.954849       -25.9828
  11   2.0000      -0.954830       -25.9822
  12   2.0000      -0.809153       -22.0182
  13   2.0000      -0.809138       -22.0178
  14   2.0000      -0.802798       -21.8452
  15   2.0000      -0.720879       -19.6161
  16   2.0000      -0.720862       -19.6156
  17   2.0000      -0.658444       -17.9172
  18   2.0000      -0.658426       -17.9167
  19   2.0000      -0.632645       -17.2151
  20   2.0000      -0.610350       -16.6085
  21   2.0000      -0.610315       -16.6075
  22   2.0000      -0.536053       -14.5868
  23   2.0000      -0.536042       -14.5864
  24   0.0000      -0.266423        -7.2497
  25   0.0000      -0.266387        -7.2487
  26   0.0000      -0.064026        -1.7422
  27   0.0000      -0.046429        -1.2634
  28   0.0000      -0.046412        -1.2629

MULLIKEN ATOMIC CHARGES
-----------------------
   0 C :   -0.177298
   1 C :   -0.176965
   2 C :   -0.177399
   3 C :   -0.177198
   4 C :   -0.177316
   5 C :   -0.177139
   6 C :   -0.177634
   7 H :    0.320171
   8 H :    0.320133
   9 H :    0.320088
  10 H :    0.320247
  11 H :    0.320026
  12 H :    0.320161
  13 H :    0.320121
Sum of atomic charges:    1.0000000

LOEWDIN ATOMIC CHARGES
----------------------
   0 C :   -0.040330
   1 C :   -0.040332
   2 C :   -0.040358
   3 C :   -0.040307
   4 C :   -0.040364
   5 C :   -0.040286
   6 C :   -0.040411
   7 H :    0.183195
   8 H :    0.183206
   9 H :    0.183189
  10 H :    0.183221
  11 H :    0.183181
  12 H :    0.183217
  13 H :    0.183179

  Mayer bond orders larger than 0.100000
B(  0-C ,  1-C ) :   1.3775 B(  0-C ,  2-C ) :   1.3774 B(  0-C , 12-H ) :   0.8774
B(  1-C ,  6-C ) :   1.3774 B(  1-C , 11-H ) :   0.8775 B(  2-C ,  3-C ) :   1.3773
B(  2-C , 13-H ) :   0.8775 B(  3-C ,  4-C ) :   1.3774 B(  3-C ,  7-H ) :   0.8775
B(  4-C ,  5-C ) :   1.3775 B(  4-C ,  8-H ) :   0.8775 B(  5-C ,  6-C ) :   1.3774
B(  5-C ,  9-H ) :   0.8775 B(  6-C , 10-H ) :   0.8774

Dispersion correction           -0.007450376
FINAL SINGLE POINT ENERGY      -270.051551204489

DIPOLE MOMENT
-------------
                                X             Y             Z
Electronic contribution:     -0.00074       0.00047      -0.00215
Nuclear contribution   :      0.00111      -0.00041       0.00291
                        -----------------------------------------
Total Dipole Moment    :      0.00037       0.00006       0.00076
                        -----------------------------------------
Magnitude (a.u.)       :      0.00085
Magnitude (Debye)      :      0.00215

Rotational constants in cm-1:     0.126616     0.126602     0.063304
Rotational constants in MHz :  3795.847663  3795.430792  1897.821020

                             ****ORCA TERMINATED NORMALLY****
TOTAL RUN TIME: 0 days 0 hours 5 minutes 44 seconds 606 msec
