                         Program Version 5.0.2 -  RELEASE  -
|  1> !PBE RI pcSseg-2 def2/J NMR
|  2>
|  3> *xyzfile 0 1 OPT_B.xyz
|  4>
|  5>
|  6>                          ****END OF INPUT****

CARTESIAN COORDINATES (ANGSTROEM)
---------------------------------
  C     -3.219132    1.096831    0.601754
  C     -2.394521   -0.189551    0.591078
  C     -4.703236    0.753316    0.474890
  C     -2.800184    1.982588   -0.571678
  C     -2.979984    1.843753    1.913594
  H     -2.546197   -0.753398   -0.331986
  H     -2.665824   -0.842295    1.423503
  H     -1.326557    0.023284    0.674715
  H     -4.909767    0.221834   -0.456379
  H     -5.320154    1.654338    0.483692
  H     -5.036256    0.117988    1.298192
  H     -2.960008    1.478617   -1.527036
  H     -1.742640    2.247582   -0.511203
  H     -3.372949    2.912002   -0.589004
  H     -3.558687    2.768740    1.952698
  H     -1.927180    2.106865    2.034666
  H     -3.268994    1.236717    2.774043

 Total Charge           Charge          ....    0
 Multiplicity           Mult            ....    1
 Number of Electrons    NEL             ....   42
 Basis Dimension        Dim             ....  348

ORBITAL ENERGIES
----------------

  NO   OCC          E(Eh)            E(eV)
   0   2.0000      -9.893634      -269.2195
   1   2.0000      -9.864657      -268.4310
   2   2.0000      -9.864638      -268.4304
   3   2.0000      -9.864634      -268.4303
   4   2.0000      -9.864604      -268.4295
   5   2.0000      -0.748330       -20.3631
   6   2.0000      -0.616817       -16.7845
   7   2.0000      -0.616686       -16.7809
   8   2.0000      -0.616673       -16.7805
   9   2.0000      -0.477540       -12.9945
  10   2.0000      -0.401641       -10.9292
  11   2.0000      -0.401428       -10.9234
  12   2.0000      -0.401344       -10.9211
  13   2.0000      -0.354151        -9.6369
  14   2.0000      -0.354017        -9.6333
  15   2.0000      -0.317193        -8.6313
  16   2.0000      -0.317163        -8.6305
  17   2.0000      -0.317125        -8.6294
  18   2.0000      -0.281742        -7.6666
  19   2.0000      -0.281582        -7.6622
  20   2.0000      -0.281541        -7.6611
  21   0.0000      -0.006522        -0.1775
  22   0.0000       0.037538         1.0215
  23   0.0000       0.037559         1.0220
  24   0.0000       0.037579         1.0226
  25   0.0000       0.051523         1.4020

MULLIKEN ATOMIC CHARGES
-----------------------
   0 C :   -0.024437
   1 C :   -0.094241
   2 C :   -0.093223
   3 C :   -0.093690
   4 C :   -0.093655
   5 H :    0.033620
   6 H :    0.033281
   7 H :    0.033248
   8 H :    0.033187
   9 H :    0.033022
  10 H :    0.033317
  11 H :    0.033382
  12 H :    0.033303
  13 H :    0.033182
  14 H :    0.033168
  15 H :    0.033250
  16 H :    0.033286
Sum of atomic charges:   -0.0000000

LOEWDIN ATOMIC CHARGES
----------------------
   0 C :   -0.150951
   1 C :   -0.058640
   2 C :   -0.058373
   3 C :   -0.058275
   4 C :   -0.058331
   5 H :    0.032138
   6 H :    0.032067
   7 H :    0.032131
   8 H :    0.032002
   9 H :    0.032045
  10 H :    0.032049
  11 H :    0.032023
  12 H :    0.031978
  13 H :    0.032056
  14 H :    0.031978
  15 H :    0.032056
  16 H :    0.032045

  Mayer bond orders larger than 0.100000
B(  0-C ,  1-C ) :   0.9809 B(  0-C ,  2-C ) :   0.9812 B(  0-C ,  3-C ) :   0.9812
B(  0-C ,  4-C ) :   0.9812 B(  1-C ,  5-H ) :   0.9974 B(  1-C ,  6-H ) :   0.9974
B(  1-C ,  7-H ) :   0.9976 B(  2-C ,  8-H ) :   0.9975 B(  2-C ,  9-H ) :   0.9973
B(  2-C , 10-H ) :   0.9974 B(  3-C , 11-H ) :   0.9975 B(  3-C , 12-H ) :   0.9976
B(  3-C , 13-H ) :   0.9973 B(  4-C , 14-H ) :   0.9973 B(  4-C , 15-H ) :   0.9976
B(  4-C , 16-H ) :   0.9975

FINAL SINGLE POINT ENERGY      -197.550811462901

DIPOLE MOMENT
-------------
                                X             Y             Z
Electronic contribution:      0.00193      -0.00307      -0.00218
Nuclear contribution   :     -0.00178       0.00283       0.00216
                        -----------------------------------------
Total Dipole Moment    :      0.00015      -0.00024      -0.00002
                        -----------------------------------------
Magnitude (a.u.)       :      0.00028
Magnitude (Debye)      :      0.00072

Rotational constants in cm-1:     0.149186     0.149078     0.149039
Rotational constants in MHz :  4472.480842  4469.239566  4468.087434

CHEMICAL SHIELDING SUMMARY (ppm)
--------------------------------

  Nucleus  Element    Isotropic     Anisotropy
  -------  -------  ------------   ------------
      0       C          147.858          0.084
      1       C          147.370         52.330
      2       C          147.265         52.414
      3       C          147.254         52.415
      4       C          147.208         52.446
      5       H           30.547          8.530
      6       H           30.556          8.516
      7       H           30.552          8.517
      8       H           30.557          8.516
      9       H           30.560          8.496
     10       H           30.554          8.513
     11       H           30.554          8.512
     12       H           30.560          8.515
     13       H           30.558          8.491
     14       H           30.562          8.501
     15       H           30.553          8.503
     16       H           30.557          8.503

                             ****ORCA TERMINATED NORMALLY****
TOTAL RUN TIME: 0 days 0 hours 1 minutes 11 seconds 83 msec
