                         Program Version 5.0.2 -  RELEASE  -
|  1> !PBE RI pcSseg-2 def2/J NMR
|  2>
|  3> *xyzfile 0 1 OPT_A.xyz
|  4>
|  5>
|  6>                          ****END OF INPUT****

CARTESIAN COORDINATES (ANGSTROEM)
---------------------------------
  C     -5.113876    1.677080    0.113166
  C     -5.072467    0.138736    0.033613
  C     -3.577405    1.682283   -0.004474
  C     -3.582269    0.201191    0.421193
  H     -5.442116    2.019225    1.095784
  H     -5.686604    2.212903   -0.643841
  H     -5.206490   -0.214093   -0.990011
  H     -5.745316   -0.424954    0.679980
  H     -3.020054    2.388933    0.610538
  H     -3.254400    1.801512   -1.039733
  H     -3.442102    0.091601    1.497577
  H     -2.894413   -0.477497   -0.083340

 Total Charge           Charge          ....    0
 Multiplicity           Mult            ....    1
 Number of Electrons    NEL             ....   32
 Basis Dimension        Dim             ....  256

ORBITAL ENERGIES
----------------

  NO   OCC          E(Eh)            E(eV)
   0   2.0000      -9.874233      -268.6915
   1   2.0000      -9.874120      -268.6885
   2   2.0000      -9.874118      -268.6884
   3   2.0000      -9.874007      -268.6854
   4   2.0000      -0.767940       -20.8967
   5   2.0000      -0.589333       -16.0366
   6   2.0000      -0.589325       -16.0363
   7   2.0000      -0.487458       -13.2644
   8   2.0000      -0.429067       -11.6755
   9   2.0000      -0.428279       -11.6541
  10   2.0000      -0.337385        -9.1807
  11   2.0000      -0.337372        -9.1804
  12   2.0000      -0.315096        -8.5742
  13   2.0000      -0.270061        -7.3487
  14   2.0000      -0.265635        -7.2283
  15   2.0000      -0.265621        -7.2279
  16   0.0000       0.002532         0.0689
  17   0.0000       0.018185         0.4948
  18   0.0000       0.028158         0.7662
  19   0.0000       0.028163         0.7664
  20   0.0000       0.066977         1.8225

MULLIKEN ATOMIC CHARGES
-----------------------
   0 C :   -0.093504
   1 C :   -0.094356
   2 C :   -0.094565
   3 C :   -0.093300
   4 H :    0.037017
   5 H :    0.056863
   6 H :    0.037170
   7 H :    0.056852
   8 H :    0.056867
   9 H :    0.037275
  10 H :    0.036957
  11 H :    0.056723
Sum of atomic charges:    0.0000000

LOEWDIN ATOMIC CHARGES
----------------------
   0 C :   -0.039947
   1 C :   -0.039928
   2 C :   -0.039931
   3 C :   -0.039899
   4 H :    0.024771
   5 H :    0.015163
   6 H :    0.024752
   7 H :    0.015172
   8 H :    0.015175
   9 H :    0.024769
  10 H :    0.024726
  11 H :    0.015177

  Mayer bond orders larger than 0.100000
B(  0-C ,  1-C ) :   0.9673 B(  0-C ,  2-C ) :   0.9673 B(  0-C ,  4-H ) :   1.0032
B(  0-C ,  5-H ) :   0.9928 B(  1-C ,  3-C ) :   0.9674 B(  1-C ,  6-H ) :   1.0031
B(  1-C ,  7-H ) :   0.9928 B(  2-C ,  3-C ) :   0.9673 B(  2-C ,  8-H ) :   0.9928
B(  2-C ,  9-H ) :   1.0031 B(  3-C , 10-H ) :   1.0031 B(  3-C , 11-H ) :   0.9929

FINAL SINGLE POINT ENERGY      -157.045074880030

DIPOLE MOMENT
-------------
                                X             Y             Z
Electronic contribution:     -0.00039       0.00073       0.00007
Nuclear contribution   :      0.00043      -0.00076      -0.00004
                        -----------------------------------------
Total Dipole Moment    :      0.00004      -0.00003       0.00003
                        -----------------------------------------
Magnitude (a.u.)       :      0.00006
Magnitude (Debye)      :      0.00016

Rotational constants in cm-1:     0.360395     0.360383     0.213682
Rotational constants in MHz : 10804.377972 10804.005826  6406.022019

CHEMICAL SHIELDING SUMMARY (ppm)
--------------------------------

  Nucleus  Element    Isotropic     Anisotropy
  -------  -------  ------------   ------------
      0       C          154.688         22.703
      1       C          154.730         22.721
      2       C          154.849         22.782
      3       C          154.876         22.810
      4       H           29.253          6.296
      5       H           29.597          9.365
      6       H           29.258          6.294
      7       H           29.598          9.363
      8       H           29.602          9.360
      9       H           29.264          6.297
     10       H           29.267          6.304
     11       H           29.602          9.355

                             ****ORCA TERMINATED NORMALLY****
TOTAL RUN TIME: 0 days 0 hours 0 minutes 46 seconds 506 msec
