                         Program Version 5.0.2 -  RELEASE  -
|  1> ! PBEh-3c Opt
|  2>
|  3> *xyzfile 0 1 A.xyz
|  4>
|  5>                          ****END OF INPUT****
 Total Charge           Charge          ....    0
 Multiplicity           Mult            ....    1
 Number of Electrons    NEL             ....   32
Dispersion correction           -0.004487421
FINAL SINGLE POINT ENERGY      -156.860204903681
Dispersion correction            ... done
Dispersion correction           -0.004488029
FINAL SINGLE POINT ENERGY      -156.864449658824
Dispersion correction            ... done
Dispersion correction           -0.004476738
FINAL SINGLE POINT ENERGY      -156.865064673893
Dispersion correction            ... done
FINAL SINGLE POINT ENERGY      -156.865451914850
FINAL SINGLE POINT ENERGY      -156.865571518008
FINAL SINGLE POINT ENERGY      -156.865631907014
Dispersion correction            ... done
Dispersion correction           -0.004457636
FINAL SINGLE POINT ENERGY      -156.865658614871
Dispersion correction            ... done
Dispersion correction           -0.004457191
FINAL SINGLE POINT ENERGY      -156.865664604680
Dispersion correction            ... done
                    ***********************HURRAY********************

CARTESIAN COORDINATES (ANGSTROEM)
---------------------------------
  C     -5.113876    1.677080    0.113166
  C     -5.072467    0.138736    0.033613
  C     -3.577405    1.682283   -0.004474
  C     -3.582269    0.201191    0.421193
  H     -5.442116    2.019225    1.095784
  H     -5.686604    2.212903   -0.643841
  H     -5.206490   -0.214093   -0.990011
  H     -5.745316   -0.424954    0.679980
  H     -3.020054    2.388933    0.610538
  H     -3.254400    1.801512   -1.039733
  H     -3.442102    0.091601    1.497577
  H     -2.894413   -0.477497   -0.083340

 Multiplicity           Mult            ....    1
 Number of Electrons    NEL             ....   32
 Basis Dimension        Dim             ....   76

ORBITAL ENERGIES
----------------

  NO   OCC          E(Eh)            E(eV)
   0   2.0000     -10.427818      -283.7554
   1   2.0000     -10.427646      -283.7507
   2   2.0000     -10.427635      -283.7504
   3   2.0000     -10.427458      -283.7456
   4   2.0000      -0.934894       -25.4398
   5   2.0000      -0.732028       -19.9195
   6   2.0000      -0.732018       -19.9192
   7   2.0000      -0.612102       -16.6561
   8   2.0000      -0.537425       -14.6241
   9   2.0000      -0.534819       -14.5532
  10   2.0000      -0.434681       -11.8283
  11   2.0000      -0.434666       -11.8279
  12   2.0000      -0.401801       -10.9336
  13   2.0000      -0.358284        -9.7494
  14   2.0000      -0.351314        -9.5597
  15   2.0000      -0.351292        -9.5591
  16   0.0000       0.143611         3.9079
  17   0.0000       0.149605         4.0709
  18   0.0000       0.165302         4.4981
  19   0.0000       0.165314         4.4984
  20   0.0000       0.234216         6.3734

MULLIKEN ATOMIC CHARGES
-----------------------
   0 C :   -0.430629
   1 C :   -0.431168
   2 C :   -0.431189
   3 C :   -0.430674
   4 H :    0.213338
   5 H :    0.217557
   6 H :    0.213346
   7 H :    0.217603
   8 H :    0.217603
   9 H :    0.213350
  10 H :    0.213421
  11 H :    0.217439
Sum of atomic charges:    0.0000000

LOEWDIN ATOMIC CHARGES
----------------------
   0 C :   -0.242408
   1 C :   -0.242435
   2 C :   -0.242427
   3 C :   -0.242403
   4 H :    0.124125
   5 H :    0.118288
   6 H :    0.124115
   7 H :    0.118305
   8 H :    0.118313
   9 H :    0.124119
  10 H :    0.124145
  11 H :    0.118265

  Mayer bond orders larger than 0.100000
B(  0-C ,  1-C ) :   0.9716 B(  0-C ,  2-C ) :   0.9716 B(  0-C ,  4-H ) :   0.9212
B(  0-C ,  5-H ) :   0.9335 B(  1-C ,  3-C ) :   0.9715 B(  1-C ,  6-H ) :   0.9212
B(  1-C ,  7-H ) :   0.9335 B(  2-C ,  3-C ) :   0.9715 B(  2-C ,  8-H ) :   0.9335
B(  2-C ,  9-H ) :   0.9212 B(  3-C , 10-H ) :   0.9212 B(  3-C , 11-H ) :   0.9336

Dispersion correction           -0.004457108
FINAL SINGLE POINT ENERGY      -156.865665017659

DIPOLE MOMENT
-------------
                                X             Y             Z
Electronic contribution:     -0.00032       0.00068       0.00021
Nuclear contribution   :      0.00043      -0.00076      -0.00004
                        -----------------------------------------
Total Dipole Moment    :      0.00012      -0.00008       0.00017
                        -----------------------------------------
Magnitude (a.u.)       :      0.00022
Magnitude (Debye)      :      0.00057

Rotational constants in cm-1:     0.360395     0.360383     0.213682
Rotational constants in MHz : 10804.377972 10804.005826  6406.022019

                             ****ORCA TERMINATED NORMALLY****
TOTAL RUN TIME: 0 days 0 hours 3 minutes 35 seconds 150 msec
