   * xtb version 6.5.1 (579679a) compiled by 'ehlert@majestix' on 2022-07-11
          program call               : xtb start.xyz --opt

   ID    Z sym.   atoms
    1    6 C      1-5, 12-16
    2    1 H      6-11, 17-22

          :  Hamiltonian                  GFN2-xTB          :
 * total energy  :   -27.4090035 Eh     change       -0.5631051E-10 Eh
 * total energy  :   -27.4252267 Eh     change       -0.1622318E-01 Eh
 * total energy  :   -27.4301683 Eh     change       -0.4941667E-02 Eh
 * total energy  :   -27.4321579 Eh     change       -0.1989554E-02 Eh
 * total energy  :   -27.4328890 Eh     change       -0.7311075E-03 Eh
 * total energy  :   -27.4332437 Eh     change       -0.3547321E-03 Eh
 * total energy  :   -27.4334844 Eh     change       -0.2406186E-03 Eh
 * total energy  :   -27.4336543 Eh     change       -0.1699615E-03 Eh
 * total energy  :   -27.4337910 Eh     change       -0.1366450E-03 Eh
 * total energy  :   -27.4338242 Eh     change       -0.3319768E-04 Eh
 * total energy  :   -27.4338662 Eh     change       -0.4202883E-04 Eh
 * total energy  :   -27.4338939 Eh     change       -0.2766546E-04 Eh
 * total energy  :   -27.4339406 Eh     change       -0.4678467E-04 Eh
 * total energy  :   -27.4339724 Eh     change       -0.3180120E-04 Eh
 * total energy  :   -27.4339901 Eh     change       -0.1764280E-04 Eh
 * total energy  :   -27.4339954 Eh     change       -0.5268591E-05 Eh
 * total energy  :   -27.4339983 Eh     change       -0.2945755E-05 Eh
   *** GEOMETRY OPTIMIZATION CONVERGED AFTER 17 ITERATIONS ***

 final structure:
================
22
 xtb: 6.5.1 (579679a)
C           -3.71949429967349        0.59346044382107        0.73433235482489
C           -3.39071064575164        0.96080028540798       -0.67411086001340
C           -2.12360930157069        1.38664088268189       -0.74074215637577
C           -1.53646313776849        1.34154290113354        0.58125887386280
C           -2.44511849133776        0.88605709857223        1.45298400299986
H           -3.99386687446880       -0.46017460041406        0.81728308937521
H           -4.55445093033264        1.17756705226258        1.12710167105607
H           -4.09505555948557        0.87404266593121       -1.48064839473378
H           -1.59729375685556        1.71571841852066       -1.61853227742938
H           -0.52483326552036        1.63692683009370        0.79679962990035
H           -2.32301851495606        0.73718223244103        2.51064083113268
C           -2.50931021910286       -2.54400394932897       -0.80374726243047
C           -2.01809710604122       -2.66674736942274        0.43589258719929
C           -0.62038815442208       -2.14472703896049        0.46970128802511
C           -0.39720968755516       -1.71923020234752       -0.94288451591666
C           -1.50246204376320       -1.95493427333549       -1.66025587364685
H           -3.48966261751791       -2.82954493384941       -1.14177541687482
H           -2.51337989546924       -3.06899230069173        1.30155339733743
H            0.09505229700701       -2.90614287634707        0.78846094502871
H           -0.52592480169138       -1.30187911754053        1.15786459100873
H            0.52527972089316       -1.28778997398762       -1.28473813539039
H           -1.65074271461597       -1.75039217464026       -2.70544836893985

          :  Hamiltonian                  GFN2-xTB          :
         :: total energy             -27.433998302464 Eh    ::
         :: gradient norm              0.000708821424 Eh/a0 ::
         :: HOMO-LUMO gap              3.702523866887 eV    ::
         :: SCC energy               -27.952906896527 Eh    ::
         :: -> dispersion             -0.018773309488 Eh    ::
         :: repulsion energy           0.518686252423 Eh    ::

    * Orbital Energies and Occupations

         #    Occupation            Energy/Eh            Energy/eV
      -------------------------------------------------------------
         1        2.0000           -0.6374558             -17.3461
       ...           ...                  ...                  ...
        14        2.0000           -0.4943534             -13.4520
        15        2.0000           -0.4511599             -12.2767
        16        2.0000           -0.4506920             -12.2640
        17        2.0000           -0.4461939             -12.1416
        18        2.0000           -0.4452500             -12.1159
        19        2.0000           -0.4401736             -11.9777
        20        2.0000           -0.4394980             -11.9593
        21        2.0000           -0.4344501             -11.8220
        22        2.0000           -0.4339342             -11.8080
        23        2.0000           -0.4220016             -11.4832
        24        2.0000           -0.4196268             -11.4186
        25        2.0000           -0.3701613             -10.0726
        26        2.0000           -0.3678936             -10.0109 (HOMO)
        27                         -0.2318284              -6.3084 (LUMO)
        28                         -0.2273252              -6.1858
        29                         -0.1394610              -3.7949
        30                         -0.1358759              -3.6974
        31                          0.1175637               3.1991
        32                          0.1192493               3.2449
        33                          0.1227374               3.3399
        34                          0.1233555               3.3567
        35                          0.1384367               3.7671
        36                          0.1390328               3.7833
        37                          0.1532881               4.1712
       ...                                ...                  ...
        52                          0.7179270              19.5358
      -------------------------------------------------------------
                  HL-Gap            0.1360652 Eh            3.7025 eV

     #   Z          covCN         q      C6AA      α(0)
     1   6 C        3.898    -0.063    21.650     6.614
     2   6 C        2.998    -0.042    29.027     8.838
     3   6 C        3.006    -0.038    28.934     8.824
     4   6 C        3.007    -0.039    28.941     8.825
     5   6 C        2.996    -0.044    29.089     8.847
     6   1 H        0.924     0.068     2.108     2.271
     7   1 H        0.924     0.063     2.168     2.303
     8   1 H        0.926     0.026     2.647     2.544
     9   1 H        0.926     0.025     2.659     2.550
    10   1 H        0.926     0.022     2.696     2.568
    11   1 H        0.926     0.023     2.692     2.566
    12   6 C        3.007    -0.039    28.945     8.825
    13   6 C        2.996    -0.044    29.086     8.847
    14   6 C        3.898    -0.063    21.656     6.615
    15   6 C        2.997    -0.042    29.029     8.838
    16   6 C        3.006    -0.038    28.940     8.825
    17   1 H        0.926     0.022     2.696     2.568
    18   1 H        0.926     0.022     2.697     2.568
    19   1 H        0.924     0.062     2.173     2.305
    20   1 H        0.924     0.069     2.101     2.267
    21   1 H        0.926     0.026     2.650     2.546
    22   1 H        0.926     0.025     2.663     2.552

Wiberg/Mayer (AO) data.
largest (>0.10) Wiberg bond orders for each atom

     #   Z sym  total        # sym  WBO       # sym  WBO       # sym  WBO
 ---------------------------------------------------------------------------
     1   6 C    3.999 --     2 C    1.041     5 C    1.041     7 H    0.933
                             6 H    0.929
     2   6 C    3.988 --     3 C    1.805     1 C    1.041     8 H    0.973
                             5 C    0.126
     3   6 C    3.990 --     2 C    1.805     4 C    1.141     9 H    0.973
     4   6 C    3.990 --     5 C    1.802     3 C    1.141    10 H    0.973
     5   6 C    3.988 --     4 C    1.802     1 C    1.041    11 H    0.973
                             2 C    0.126
     6   1 H    0.995 --     1 C    0.929
     7   1 H    0.996 --     1 C    0.933
     8   1 H    0.999 --     2 C    0.973
     9   1 H    0.999 --     3 C    0.973
    10   1 H    0.999 --     4 C    0.973
    11   1 H    0.999 --     5 C    0.973
    12   6 C    3.990 --    13 C    1.803    16 C    1.142    17 H    0.973
    13   6 C    3.988 --    12 C    1.803    14 C    1.041    18 H    0.973
                            15 C    0.126
    14   6 C    3.999 --    15 C    1.041    13 C    1.041    19 H    0.934
                            20 H    0.928
    15   6 C    3.988 --    16 C    1.804    14 C    1.041    21 H    0.973
                            13 C    0.126
    16   6 C    3.990 --    15 C    1.804    12 C    1.142    22 H    0.973
    17   1 H    0.999 --    12 C    0.973
    18   1 H    0.999 --    13 C    0.973
    19   1 H    0.996 --    14 C    0.934
    20   1 H    0.995 --    14 C    0.928
    21   1 H    0.999 --    15 C    0.973
    22   1 H    0.999 --    16 C    0.973
 ---------------------------------------------------------------------------

molecular dipole:
                 x           y           z       tot (Debye)
 q only:       -0.064      -0.074       0.310
   full:       -0.076      -0.087       0.359       0.959

           -------------------------------------------------
          | TOTAL ENERGY              -27.433998302464 Eh   |
          | GRADIENT NORM               0.000708821424 Eh/α |
          | HOMO-LUMO GAP               3.702523866887 eV   |
           -------------------------------------------------

 * finished run on 2023/06/13 at 15:49:32.916
