                         Program Version 5.0.2 -  RELEASE  -
|  1> ! PBEh-3c Opt
|  2>
|  3> *xyzfile -1 1 Ar-2.xyz
|  4>
|  5>                          ****END OF INPUT****
 Total Charge           Charge          ....   -1
 Multiplicity           Mult            ....    1
 Number of Electrons    NEL             ....   36
Dispersion correction           -0.004230399
FINAL SINGLE POINT ENERGY      -193.069653348121
Dispersion correction            ... done
Dispersion correction           -0.004229821
FINAL SINGLE POINT ENERGY      -193.078952123594
Dispersion correction            ... done
Dispersion correction           -0.004226465
FINAL SINGLE POINT ENERGY      -193.080032748685
Dispersion correction            ... done
FINAL SINGLE POINT ENERGY      -193.080091639404
Dispersion correction            ... done
Dispersion correction           -0.004229140
FINAL SINGLE POINT ENERGY      -193.080095850768
Dispersion correction            ... done
Dispersion correction           -0.004229227
FINAL SINGLE POINT ENERGY      -193.080097961057
Dispersion correction            ... done
                    ***********************HURRAY********************

CARTESIAN COORDINATES (ANGSTROEM)
---------------------------------
  C     -5.007473   -9.079330   -7.312433
  C     -5.019305   -8.071981   -6.332127
  C     -3.952903   -7.195659   -6.597083
  C     -3.281936   -7.661179   -7.741293
  C     -3.933405   -8.825875   -8.182794
  H     -3.655777   -9.424227   -9.043745
  H     -2.413731   -7.202481   -8.201633
  H     -3.692318   -6.314824   -6.020416
  H     -5.727502   -7.986042   -5.515111
  H     -5.704199   -9.907484   -7.384244

 Multiplicity           Mult            ....    1
 Number of Electrons    NEL             ....   36
 Basis Dimension        Dim             ....   85

ORBITAL ENERGIES
----------------

  NO   OCC          E(Eh)            E(eV)
   0   2.0000     -10.194334      -277.4019
   1   2.0000     -10.194029      -277.3936
   2   2.0000     -10.194020      -277.3934
   3   2.0000     -10.193435      -277.3775
   4   2.0000     -10.193412      -277.3768
   5   2.0000      -0.713208       -19.4074
   6   2.0000      -0.540598       -14.7104
   7   2.0000      -0.540557       -14.7093
   8   2.0000      -0.372243       -10.1292
   9   2.0000      -0.372215       -10.1285
  10   2.0000      -0.354546        -9.6477
  11   2.0000      -0.209297        -5.6953
  12   2.0000      -0.209228        -5.6934
  13   2.0000      -0.189571        -5.1585
  14   2.0000      -0.189495        -5.1564
  15   2.0000      -0.179040        -4.8719
  16   2.0000      -0.007922        -0.2156
  17   2.0000      -0.007879        -0.2144
  18   0.0000       0.331693         9.0258
  19   0.0000       0.331721         9.0266
  20   0.0000       0.359674         9.7872
  21   0.0000       0.421941        11.4816
  22   0.0000       0.422035        11.4842

MULLIKEN ATOMIC CHARGES
-----------------------
   0 C :   -0.291597
   1 C :   -0.291640
   2 C :   -0.290999
   3 C :   -0.291540
   4 C :   -0.290953
   5 H :    0.091240
   6 H :    0.091390
   7 H :    0.091258
   8 H :    0.091408
   9 H :    0.091432
Sum of atomic charges:   -1.0000000

LOEWDIN ATOMIC CHARGES
----------------------
   0 C :   -0.277586
   1 C :   -0.277566
   2 C :   -0.277510
   3 C :   -0.277779
   4 C :   -0.277502
   5 H :    0.077568
   6 H :    0.077636
   7 H :    0.077568
   8 H :    0.077588
   9 H :    0.077583

  Mayer bond orders larger than 0.100000
B(  0-C ,  1-C ) :   1.4351 B(  0-C ,  4-C ) :   1.4353 B(  0-C ,  9-H ) :   0.9403
B(  1-C ,  2-C ) :   1.4353 B(  1-C ,  8-H ) :   0.9403 B(  2-C ,  3-C ) :   1.4351
B(  2-C ,  7-H ) :   0.9402 B(  3-C ,  4-C ) :   1.4351 B(  3-C ,  6-H ) :   0.9402
B(  4-C ,  5-H ) :   0.9402

Dispersion correction           -0.004229004
FINAL SINGLE POINT ENERGY      -193.080098968234

DIPOLE MOMENT
-------------
                                X             Y             Z
Electronic contribution:     -0.00113       0.00040      -0.00007
Nuclear contribution   :      0.00129      -0.00089       0.00050
                        -----------------------------------------
Total Dipole Moment    :      0.00016      -0.00050       0.00044
                        -----------------------------------------
Magnitude (a.u.)       :      0.00068
Magnitude (Debye)      :      0.00173

Rotational constants in cm-1:     0.300862     0.300856     0.150430
Rotational constants in MHz :  9019.625868  9019.434391  4509.765510

                             ****ORCA TERMINATED NORMALLY****
TOTAL RUN TIME: 0 days 0 hours 3 minutes 12 seconds 746 msec
