   * xtb version 6.5.1 (579679a) compiled by 'ehlert@majestix' on 2022-07-11
          program call               : xtb start.xyz --opt

   ID    Z sym.   atoms
    1    6 C      1-3, 5, 6
    2    8 O      4
    3    1 H      7-14

          :  Hamiltonian                  GFN2-xTB          :
 * total energy  :   -18.7676123 Eh     change       -0.2957634E-10 Eh
 * total energy  :   -18.7741241 Eh     change       -0.6511768E-02 Eh
 * total energy  :   -18.7756641 Eh     change       -0.1540033E-02 Eh
 * total energy  :   -18.7758269 Eh     change       -0.1627726E-03 Eh
 * total energy  :   -18.7759398 Eh     change       -0.1129370E-03 Eh
 * total energy  :   -18.7760324 Eh     change       -0.9261509E-04 Eh
 * total energy  :   -18.7761318 Eh     change       -0.9937671E-04 Eh
 * total energy  :   -18.7762660 Eh     change       -0.1341648E-03 Eh
 * total energy  :   -18.7764221 Eh     change       -0.1561245E-03 Eh
 * total energy  :   -18.7766815 Eh     change       -0.2593912E-03 Eh
 * total energy  :   -18.7778513 Eh     change       -0.6442847E-04 Eh
 * total energy  :   -18.7778735 Eh     change       -0.2222560E-04 Eh
 * total energy  :   -18.7778853 Eh     change       -0.1174692E-04 Eh
 * total energy  :   -18.7779254 Eh     change       -0.4013754E-04 Eh
 * total energy  :   -18.7779378 Eh     change       -0.1234404E-04 Eh
 * total energy  :   -18.7779460 Eh     change       -0.8200488E-05 Eh
 * total energy  :   -18.7779555 Eh     change       -0.9533561E-05 Eh
 * total energy  :   -18.7779607 Eh     change       -0.5237000E-05 Eh
 * total energy  :   -18.7779653 Eh     change       -0.4536918E-05 Eh
   *** GEOMETRY OPTIMIZATION CONVERGED AFTER 27 ITERATIONS ***

 final structure:
================
14
 xtb: 6.5.1 (579679a)
C           -6.46542291070029        1.93009266436538        0.98347912258541
C           -5.99125539397782        2.60578101706699       -0.04519655967095
C           -4.67893753755743        3.33871590594181       -0.06504490733528
O           -3.84767426190049        3.10688935442536        1.05015638168254
C           -3.19107926127520        1.92446008469698        1.11929365879252
C           -3.24875281210432        0.88910581619523        0.29745903853570
H           -7.41926484682167        1.43285016609723        0.94420922079119
H           -5.91567588972203        1.84744624973463        1.90617513453701
H           -6.55089378048578        2.69038580535997       -0.96788103408457
H           -4.87310755816520        4.41831345399905       -0.05353177505498
H           -4.13968444612572        3.10312828189928       -0.99444966530428
H           -2.54907540390007        1.92685153572788        1.99087533386137
H           -3.88988020263412        0.85385312020482       -0.56461210539439
H           -2.64405569462977        0.02205654428530        0.48393815605872

          :  Hamiltonian                  GFN2-xTB          :
         :: total energy             -18.777965260619 Eh    ::
         :: gradient norm              0.000693722515 Eh/a0 ::
         :: HOMO-LUMO gap              4.611800885856 eV    ::
         :: SCC energy               -19.059144715533 Eh    ::
         :: -> dispersion             -0.008395286941 Eh    ::
         :: repulsion energy           0.281160680985 Eh    ::

    * Orbital Energies and Occupations

         #    Occupation            Energy/Eh            Energy/eV
      -------------------------------------------------------------
         1        2.0000           -0.7104968             -19.3336
       ...           ...                  ...                  ...
         5        2.0000           -0.5818046             -15.8317
         6        2.0000           -0.5580675             -15.1858
         7        2.0000           -0.5534335             -15.0597
         8        2.0000           -0.5370977             -14.6152
         9        2.0000           -0.5176843             -14.0869
        10        2.0000           -0.4946243             -13.4594
        11        2.0000           -0.4875207             -13.2661
        12        2.0000           -0.4632278             -12.6051
        13        2.0000           -0.4598213             -12.5124
        14        2.0000           -0.4449482             -12.1077
        15        2.0000           -0.4358154             -11.8591
        16        2.0000           -0.4093907             -11.1401
        17        2.0000           -0.3786770             -10.3043 (HOMO)
        18                         -0.2091964              -5.6925 (LUMO)
        19                         -0.1869801              -5.0880
        20                          0.0391343               1.0649
        21                          0.0958791               2.6090
        22                          0.1191451               3.2421
        23                          0.1417963               3.8585
        24                          0.1431267               3.8947
        25                          0.1596747               4.3450
        26                          0.1985713               5.4034
        27                          0.2150217               5.8510
        28                          0.2726626               7.4195
       ...                                ...                  ...
        32                          0.6409748              17.4418
      -------------------------------------------------------------
                  HL-Gap            0.1694806 Eh            4.6118 eV

     #   Z          covCN         q      C6AA      α(0)
     1   6 C        2.836    -0.083    30.067     8.986
     2   6 C        2.883    -0.039    28.979     8.825
     3   6 C        3.702     0.078    19.432     6.303
     4   8 O        1.704    -0.262    18.339     5.782
     5   6 C        2.784     0.102    25.722     8.307
     6   6 C        2.833    -0.140    31.569     9.207
     7   1 H        0.926     0.041     2.439     2.442
     8   1 H        0.926     0.051     2.312     2.378
     9   1 H        0.925     0.036     2.509     2.477
    10   1 H        0.924     0.058     2.227     2.334
    11   1 H        0.923     0.039     2.460     2.453
    12   1 H        0.925     0.045     2.384     2.415
    13   1 H        0.926     0.038     2.470     2.458
    14   1 H        0.926     0.037     2.491     2.468

Wiberg/Mayer (AO) data.
largest (>0.10) Wiberg bond orders for each atom

     #   Z sym  total        # sym  WBO       # sym  WBO       # sym  WBO
 ---------------------------------------------------------------------------
     1   6 C    3.992 --     2 C    1.983     7 H    0.976     8 H    0.974
     2   6 C    3.990 --     1 C    1.983     3 C    1.010     9 H    0.965
     3   6 C    3.951 --     2 C    1.010     4 O    0.974    11 H    0.955
                            10 H    0.952
     4   8 O    2.254 --     5 C    1.080     3 C    0.974     6 C    0.136
     5   6 C    3.935 --     6 C    1.872     4 O    1.080    12 H    0.956
     6   6 C    3.978 --     5 C    1.872    14 H    0.978    13 H    0.973
                             4 O    0.136
     7   1 H    0.998 --     1 C    0.976
     8   1 H    0.997 --     1 C    0.974
     9   1 H    0.999 --     2 C    0.965
    10   1 H    0.997 --     3 C    0.952
    11   1 H    0.998 --     3 C    0.955
    12   1 H    0.998 --     5 C    0.956
    13   1 H    0.999 --     6 C    0.973
    14   1 H    0.999 --     6 C    0.978
 ---------------------------------------------------------------------------

molecular dipole:
                 x           y           z       tot (Debye)
 q only:       -0.179      -0.001      -0.270
   full:       -0.181      -0.024      -0.386       1.084

           -------------------------------------------------
          | TOTAL ENERGY              -18.777965260619 Eh   |
          | GRADIENT NORM               0.000693722515 Eh/α |
          | HOMO-LUMO GAP               4.611800885856 eV   |
           -------------------------------------------------

 * finished run on 2023/06/22 at 18:14:24.145
