   * xtb version 6.5.1 (579679a) compiled by 'ehlert@majestix' on 2022-07-11
          program call               : xtb claisen_start_2.xyz --opt

   ID    Z sym.   atoms
    1    6 C      1-3, 5, 6
    2    8 O      4
    3    1 H      7-14

          :  Hamiltonian                  GFN2-xTB          :
 * total energy  :   -18.7645343 Eh     change       -0.3743139E-10 Eh
 * total energy  :   -18.7730789 Eh     change       -0.8544623E-02 Eh
 * total energy  :   -18.7757239 Eh     change       -0.2644959E-02 Eh
 * total energy  :   -18.7764833 Eh     change       -0.7594358E-03 Eh
 * total energy  :   -18.7770270 Eh     change       -0.5436730E-03 Eh
 * total energy  :   -18.7775170 Eh     change       -0.4899903E-03 Eh
 * total energy  :   -18.7777695 Eh     change       -0.2525292E-03 Eh
 * total energy  :   -18.7778738 Eh     change       -0.1042614E-03 Eh
 * total energy  :   -18.7779156 Eh     change       -0.4177157E-04 Eh
 * total energy  :   -18.7779323 Eh     change       -0.1672545E-04 Eh
 * total energy  :   -18.7779406 Eh     change       -0.8301100E-05 Eh
 * total energy  :   -18.7779467 Eh     change       -0.6159839E-05 Eh
 * total energy  :   -18.7779524 Eh     change       -0.5616247E-05 Eh
 * total energy  :   -18.7779615 Eh     change       -0.9132747E-05 Eh
 * total energy  :   -18.7779672 Eh     change       -0.5697017E-05 Eh
 * total energy  :   -18.7779688 Eh     change       -0.1603074E-05 Eh
   *** GEOMETRY OPTIMIZATION CONVERGED AFTER 16 ITERATIONS ***

 final structure:
================
14
 xtb: 6.5.1 (579679a)
C           -1.02034905522410        5.86786725965360       -3.31372306753605
C           -2.10557710024068        5.39303661042301       -2.73430454171526
C           -2.57093374005372        3.96574375946769       -2.80855731576453
O           -1.85223872948349        3.14724006303705       -3.70399445916517
C           -2.08317722931274        3.29852724353195       -5.02985347129975
C           -2.88032951106893        4.15599958971226       -5.64618781388530
H           -0.37999017197435        5.24214492729104       -3.91261648380194
H           -0.73086754834308        6.89978018022393       -3.21545351711933
H           -2.74264800758532        6.02628285332379       -2.13075575151137
H           -3.64407175097520        3.93993591994941       -3.04979303460081
H           -2.43610227703838        3.49641969548130       -1.82613782229400
H           -1.50079113149880        2.56773196792041       -5.57624635428382
H           -3.45576983450880        4.90386870649699       -5.13149548310361
H           -2.96617391269241        4.13411122348758       -6.71612088391911

          :  Hamiltonian                  GFN2-xTB          :
         :: total energy             -18.777968790134 Eh    ::
         :: gradient norm              0.000488038550 Eh/a0 ::
         :: HOMO-LUMO gap              4.614536276610 eV    ::
         :: SCC energy               -19.059280661346 Eh    ::
         :: -> dispersion             -0.008399627557 Eh    ::
         :: repulsion energy           0.281293159232 Eh    ::

    * Orbital Energies and Occupations

         #    Occupation            Energy/Eh            Energy/eV
      -------------------------------------------------------------
         1        2.0000           -0.7105270             -19.3344
       ...           ...                  ...                  ...
         5        2.0000           -0.5818442             -15.8328
         6        2.0000           -0.5582054             -15.1895
         7        2.0000           -0.5533775             -15.0582
         8        2.0000           -0.5371438             -14.6164
         9        2.0000           -0.5176664             -14.0864
        10        2.0000           -0.4947368             -13.4625
        11        2.0000           -0.4874426             -13.2640
        12        2.0000           -0.4632865             -12.6067
        13        2.0000           -0.4598849             -12.5141
        14        2.0000           -0.4448528             -12.1051
        15        2.0000           -0.4359912             -11.8639
        16        2.0000           -0.4094175             -11.1408
        17        2.0000           -0.3786336             -10.3031 (HOMO)
        18                         -0.2090525              -5.6886 (LUMO)
        19                         -0.1869582              -5.0874
        20                          0.0390838               1.0635
        21                          0.0958956               2.6095
        22                          0.1187794               3.2322
        23                          0.1419126               3.8616
        24                          0.1430808               3.8934
        25                          0.1594870               4.3399
        26                          0.1991974               5.4204
        27                          0.2149772               5.8498
        28                          0.2725784               7.4172
       ...                                ...                  ...
        32                          0.6412933              17.4505
      -------------------------------------------------------------
                  HL-Gap            0.1695811 Eh            4.6145 eV

     #   Z          covCN         q      C6AA      α(0)
     1   6 C        2.836    -0.083    30.068     8.986
     2   6 C        2.883    -0.040    28.980     8.825
     3   6 C        3.701     0.078    19.431     6.303
     4   8 O        1.704    -0.262    18.338     5.782
     5   6 C        2.784     0.102    25.721     8.307
     6   6 C        2.833    -0.140    31.569     9.207
     7   1 H        0.926     0.050     2.314     2.379
     8   1 H        0.926     0.041     2.439     2.442
     9   1 H        0.925     0.036     2.508     2.476
    10   1 H        0.923     0.039     2.458     2.452
    11   1 H        0.924     0.058     2.227     2.334
    12   1 H        0.925     0.045     2.385     2.415
    13   1 H        0.926     0.038     2.471     2.458
    14   1 H        0.926     0.037     2.491     2.468

Wiberg/Mayer (AO) data.
largest (>0.10) Wiberg bond orders for each atom

     #   Z sym  total        # sym  WBO       # sym  WBO       # sym  WBO
 ---------------------------------------------------------------------------
     1   6 C    3.992 --     2 C    1.982     8 H    0.976     7 H    0.974
     2   6 C    3.990 --     1 C    1.982     3 C    1.010     9 H    0.965
     3   6 C    3.951 --     2 C    1.010     4 O    0.975    10 H    0.955
                            11 H    0.952
     4   8 O    2.254 --     5 C    1.080     3 C    0.975     6 C    0.137
     5   6 C    3.935 --     6 C    1.871     4 O    1.080    12 H    0.956
     6   6 C    3.978 --     5 C    1.871    14 H    0.978    13 H    0.973
                             4 O    0.137
     7   1 H    0.997 --     1 C    0.974
     8   1 H    0.998 --     1 C    0.976
     9   1 H    0.999 --     2 C    0.965
    10   1 H    0.998 --     3 C    0.955
    11   1 H    0.997 --     3 C    0.952
    12   1 H    0.998 --     5 C    0.956
    13   1 H    0.999 --     6 C    0.973
    14   1 H    0.999 --     6 C    0.978
 ---------------------------------------------------------------------------

molecular dipole:
                 x           y           z       tot (Debye)
 q only:       -0.184       0.215       0.159
   full:       -0.292       0.262       0.169       1.086

           -------------------------------------------------
          | TOTAL ENERGY              -18.777968790134 Eh   |
          | GRADIENT NORM               0.000488038550 Eh/α |
          | HOMO-LUMO GAP               4.614536276610 eV   |
           -------------------------------------------------

 * finished run on 2023/06/22 at 11:24:23.519
normal termination of xtb
