                         Program Version 5.0.2 -  RELEASE  -
|  1> !PBE RI pcSseg-2 def2/J NMR
|  2>
|  3> *xyzfile 0 1 H2O.xyz
|  4>
|  5>
|  6>                          ****END OF INPUT****

CARTESIAN COORDINATES (ANGSTROEM)
---------------------------------
  O     -5.362726    1.450539    0.016570
  H     -4.403981    1.466499   -0.027072
  H     -5.638572    1.766322   -0.846998

 Total Charge           Charge          ....    0
 Multiplicity           Mult            ....    1
 Number of Electrons    NEL             ....   10
 Basis Dimension        Dim             ....   64

ORBITAL ENERGIES
----------------

  NO   OCC          E(Eh)            E(eV)
   0   2.0000     -18.748808      -510.1810
   1   2.0000      -0.927593       -25.2411
   2   2.0000      -0.480529       -13.0758
   3   2.0000      -0.339280        -9.2323
   4   2.0000      -0.261845        -7.1252
   5   0.0000      -0.015237        -0.4146
   6   0.0000       0.052008         1.4152
   7   0.0000       0.248710         6.7677
   8   0.0000       0.276421         7.5218
   9   0.0000       0.301770         8.2116

MULLIKEN ATOMIC CHARGES
-----------------------
   0 O :   -0.390340
   1 H :    0.195131
   2 H :    0.195209
Sum of atomic charges:    0.0000000

LOEWDIN ATOMIC CHARGES
----------------------
   0 O :    0.098542
   1 H :   -0.049342
   2 H :   -0.049201

  Mayer bond orders larger than 0.100000
B(  0-O ,  1-H ) :   1.0313 B(  0-O ,  2-H ) :   1.0313

FINAL SINGLE POINT ENERGY       -76.382020823868

DIPOLE MOMENT
-------------
                                X             Y             Z
Electronic contribution:     -0.12340      -0.05997       0.16399
Nuclear contribution   :      0.56842       0.27613      -0.75513
                        -----------------------------------------
Total Dipole Moment    :      0.44501       0.21616      -0.59114
                        -----------------------------------------
Magnitude (a.u.)       :      0.77085
Magnitude (Debye)      :      1.95934

Rotational constants in cm-1:    26.912614    14.629059     9.477380
Rotational constants in MHz : 806819.873299 438568.146172 284124.698965

CHEMICAL SHIELDING SUMMARY (ppm)
--------------------------------

  Nucleus  Element    Isotropic     Anisotropy
  -------  -------  ------------   ------------
      0       O          329.234         44.284
      1       H           31.224         19.387
      2       H           31.217         19.390

                             ****ORCA TERMINATED NORMALLY****
TOTAL RUN TIME: 0 days 0 hours 0 minutes 3 seconds 767 msec
