                         Program Version 5.0.2 -  RELEASE  -
|  1> !PBE RI pcSseg-2 def2/J NMR
|  2>
|  3> *xyzfile 0 1 OPT_C.xyz
|  4>
|  5>
|  6>                          ****END OF INPUT****

CARTESIAN COORDINATES (ANGSTROEM)
---------------------------------
  C     -4.573548   -3.191708   -0.073093
  C     -3.386415   -2.602693   -0.021706
  C     -3.060005   -1.389724    0.789477
  C     -2.618548   -0.214800   -0.079980
  H     -4.749364   -4.062597   -0.689772
  H     -5.416124   -2.827079    0.502095
  H     -2.574778   -3.006906   -0.621450
  H     -2.259632   -1.631402    1.495866
  H     -3.926160   -1.103976    1.390686
  H     -1.737455   -0.467491   -0.671550
  H     -2.366944    0.653271    0.529539
  H     -3.408087    0.077145   -0.772022

 Total Charge           Charge          ....    0
 Multiplicity           Mult            ....    1
 Number of Electrons    NEL             ....   32
 Basis Dimension        Dim             ....  256

ORBITAL ENERGIES
----------------

  NO   OCC          E(Eh)            E(eV)
   0   2.0000      -9.883336      -268.9392
   1   2.0000      -9.883113      -268.9332
   2   2.0000      -9.872081      -268.6330
   3   2.0000      -9.869714      -268.5686
   4   2.0000      -0.728509       -19.8237
   5   2.0000      -0.659558       -17.9475
   6   2.0000      -0.565179       -15.3793
   7   2.0000      -0.496978       -13.5234
   8   2.0000      -0.422962       -11.5094
   9   2.0000      -0.396079       -10.7779
  10   2.0000      -0.379188       -10.3182
  11   2.0000      -0.338712        -9.2168
  12   2.0000      -0.332071        -9.0361
  13   2.0000      -0.299646        -8.1538
  14   2.0000      -0.292691        -7.9645
  15   2.0000      -0.230849        -6.2817
  16   0.0000      -0.026708        -0.7268
  17   0.0000       0.007100         0.1932
  18   0.0000       0.026415         0.7188
  19   0.0000       0.030397         0.8272
  20   0.0000       0.042469         1.1556

MULLIKEN ATOMIC CHARGES
-----------------------
   0 C :   -0.116179
   1 C :   -0.093854
   2 C :    0.013344
   3 C :   -0.094119
   4 H :    0.053612
   5 H :    0.038991
   6 H :    0.033385
   7 H :    0.039347
   8 H :    0.018900
   9 H :    0.028944
  10 H :    0.039856
  11 H :    0.037774
Sum of atomic charges:    0.0000000

LOEWDIN ATOMIC CHARGES
----------------------
   0 C :   -0.049608
   1 C :   -0.039271
   2 C :   -0.064661
   3 C :   -0.057326
   4 H :    0.019597
   5 H :    0.018494
   6 H :    0.026107
   7 H :    0.032919
   8 H :    0.030128
   9 H :    0.027369
  10 H :    0.027113
  11 H :    0.029137

  Mayer bond orders larger than 0.100000
B(  0-C ,  1-C ) :   1.9125 B(  0-C ,  4-H ) :   0.9951 B(  0-C ,  5-H ) :   1.0011
B(  1-C ,  2-C ) :   0.9945 B(  1-C ,  6-H ) :   0.9972 B(  2-C ,  3-C ) :   0.9455
B(  2-C ,  7-H ) :   0.9833 B(  2-C ,  8-H ) :   1.0011 B(  3-C ,  9-H ) :   1.0013
B(  3-C , 10-H ) :   0.9971 B(  3-C , 11-H ) :   0.9979

FINAL SINGLE POINT ENERGY      -157.051637685608

DIPOLE MOMENT
-------------
                                X             Y             Z
Electronic contribution:     -0.56392      -1.82745       0.10412
Nuclear contribution   :      0.67359       1.95116      -0.05302
                        -----------------------------------------
Total Dipole Moment    :      0.10967       0.12371       0.05110
                        -----------------------------------------
Magnitude (a.u.)       :      0.17304
Magnitude (Debye)      :      0.43984

Rotational constants in cm-1:     0.753439     0.139795     0.136675
Rotational constants in MHz : 22587.542673  4190.945826  4097.418867

CHEMICAL SHIELDING SUMMARY (ppm)
--------------------------------

  Nucleus  Element    Isotropic     Anisotropy
  -------  -------  ------------   ------------
      0       C           59.914        134.489
      1       C           26.189        178.175
      2       C          145.245         27.212
      3       C          164.421         27.332
      4       H           26.281          5.157
      5       H           26.158          4.967
      6       H           25.151          4.371
      7       H           29.149          7.256
      8       H           29.387          5.864
      9       H           30.490          8.066
     10       H           30.314          9.642
     11       H           30.743          7.820

                             ****ORCA TERMINATED NORMALLY****
TOTAL RUN TIME: 0 days 0 hours 0 minutes 46 seconds 242 msec
