                         Program Version 5.0.2 -  RELEASE  -
|  1> ! RHF def2-TZVP TightSCF Conv
|  2>
|  3> %casscf
|  4>   nel 6
|  5>   norb 6
|  6>   switchstep nr
|  7> end
|  8>
|  9> %paras R= 4.0,0.5,35 end
| 10>
| 11> * xyz 0 1
| 12> H 0 0 0
| 13> F 0 0 {R}
| 14> **                         ****END OF INPUT****
 Total Charge           Charge          ....    0
 Multiplicity           Mult            ....    1
 Number of Electrons    NEL             ....   10
 Basis Dimension        Dim             ....   37

ORBITAL ENERGIES
----------------

  NO   OCC          E(Eh)            E(eV)
   0   2.0000     -26.389595      -718.0974
   1   2.0000      -1.485366       -40.4189
   2   1.9898      -0.707448       -19.2506
   3   1.9894      -0.800884       -21.7932
   4   1.0000      -0.261596        -7.1184
   5   1.0000      -0.290188        -7.8964
   6   0.0106       1.644567        44.7509
   7   0.0102       1.634106        44.4663
   8   0.0000       0.394159        10.7256
   9   0.0000       0.642039        17.4708
  10   0.0000       0.678001        18.4493
  11   0.0000       1.662126        45.2288
  12   0.0000       1.662153        45.2295

MULLIKEN ATOMIC CHARGES
-----------------------
   0 H :   -0.000125
   1 F :    0.000125
Sum of atomic charges:    0.0000000

LOEWDIN ATOMIC CHARGES
----------------------
   0 H :   -0.000086
   1 F :    0.000086

FINAL SINGLE POINT ENERGY       -99.949973181905
FINAL SINGLE POINT ENERGY       -99.949968248691
FINAL SINGLE POINT ENERGY       -99.949960375968
FINAL SINGLE POINT ENERGY       -99.949948338883
FINAL SINGLE POINT ENERGY       -99.949930439579
FINAL SINGLE POINT ENERGY       -99.949904316834
FINAL SINGLE POINT ENERGY       -99.949866671082
FINAL SINGLE POINT ENERGY       -99.949812894028
FINAL SINGLE POINT ENERGY       -99.949736866996
FINAL SINGLE POINT ENERGY       -99.949635353161
FINAL SINGLE POINT ENERGY      -100.057944378721
FINAL SINGLE POINT ENERGY      -100.082488647390
FINAL SINGLE POINT ENERGY      -100.108236518997
FINAL SINGLE POINT ENERGY      -100.133063275240
FINAL SINGLE POINT ENERGY      -100.153074442607
FINAL SINGLE POINT ENERGY      -100.160926232765
FINAL SINGLE POINT ENERGY      -100.142426134899
FINAL SINGLE POINT ENERGY      -100.069829220538
FINAL SINGLE POINT ENERGY       -99.887243712999

CARTESIAN COORDINATES (ANGSTROEM)
---------------------------------
  H      0.000000    0.000000    0.000000
  F      0.000000    0.000000    0.500000

FINAL SINGLE POINT ENERGY       -99.467726446625

DIPOLE MOMENT
-------------
                                X             Y             Z
Electronic contribution:      0.00000       0.00000      -0.05258
Nuclear contribution   :      0.00000       0.00000      -0.46879
                        -----------------------------------------
Total Dipole Moment    :      0.00000       0.00000      -0.52137
                        -----------------------------------------
Magnitude (a.u.)       :      0.52137
Magnitude (Debye)      :      1.32522

Rotational constants in cm-1:     0.000000    70.444768    70.444768
Rotational constants in MHz :     0.000000 2111881.006407 2111881.006407

                             ****ORCA TERMINATED NORMALLY****
TOTAL RUN TIME: 0 days 4 hours 11 minutes 36 seconds 278 msec
