                         Program Version 5.0.2 -  RELEASE  -
|  1> ! RHF def2-TZVP TightSCF Conv
|  2>
|  3> %casscf
|  4>   nel 2
|  5>   norb 2
|  6>   switchstep nr
|  7> end
|  8>
|  9> %paras R= 4.0,0.5,35 end
| 10>
| 11> * xyz 0 1
| 12> H 0 0 0
| 13> F 0 0 {R}
| 14> **                         ****END OF INPUT****
 Total Charge           Charge          ....    0
 Multiplicity           Mult            ....    1
 Number of Electrons    NEL             ....   10
 Basis Dimension        Dim             ....   37

ORBITAL ENERGIES
----------------

  NO   OCC          E(Eh)            E(eV)
   0   2.0000     -26.381894      -717.8878
   1   2.0000      -1.571498       -42.7626
   2   2.0000      -0.704698       -19.1758
   3   2.0000      -0.704688       -19.1755
   4   1.0000      -0.272102        -7.4043
   5   1.0000      -0.272102        -7.4043
   6   0.0000       0.387350        10.5403
   7   0.0000       0.639522        17.4023
   8   0.0000       0.681643        18.5484
   9   0.0000       0.683686        18.6040
  10   0.0000       0.692297        18.8384

MULLIKEN ATOMIC CHARGES
-----------------------
   0 H :   -0.000095
   1 F :    0.000095
Sum of atomic charges:   -0.0000000

LOEWDIN ATOMIC CHARGES
----------------------
   0 H :   -0.000061
   1 F :    0.000061

FINAL SINGLE POINT ENERGY       -99.906972961351
FINAL SINGLE POINT ENERGY       -99.906967852686
FINAL SINGLE POINT ENERGY       -99.906960026127
FINAL SINGLE POINT ENERGY       -99.906948361657
FINAL SINGLE POINT ENERGY       -99.906931293083
FINAL SINGLE POINT ENERGY       -99.906906610659
FINAL SINGLE POINT ENERGY       -99.906871179269
FINAL SINGLE POINT ENERGY       -99.906820548937
FINAL SINGLE POINT ENERGY       -99.906748435308
FINAL SINGLE POINT ENERGY       -99.906646047454
FINAL SINGLE POINT ENERGY       -99.991987900246
FINAL SINGLE POINT ENERGY      -100.013344133793
FINAL SINGLE POINT ENERGY      -100.036506165163
FINAL SINGLE POINT ENERGY      -100.059565786257
FINAL SINGLE POINT ENERGY      -100.078774551403
FINAL SINGLE POINT ENERGY      -100.086845527597
FINAL SINGLE POINT ENERGY      -100.069512000802
FINAL SINGLE POINT ENERGY       -99.998795472556
FINAL SINGLE POINT ENERGY       -99.817180199452

CARTESIAN COORDINATES (ANGSTROEM)
---------------------------------
  H      0.000000    0.000000    0.000000
  F      0.000000    0.000000    0.500000

FINAL SINGLE POINT ENERGY       -99.397034772396

DIPOLE MOMENT
-------------
                                X             Y             Z
Electronic contribution:     -0.00000      -0.00000      -0.03555
Nuclear contribution   :      0.00000       0.00000      -0.46879
                        -----------------------------------------
Total Dipole Moment    :     -0.00000      -0.00000      -0.50434
                        -----------------------------------------
Magnitude (a.u.)       :      0.50434
Magnitude (Debye)      :      1.28193

Rotational constants in cm-1:     0.000000    70.444768    70.444768
Rotational constants in MHz :     0.000000 2111881.006407 2111881.006407

                             ****ORCA TERMINATED NORMALLY****
TOTAL RUN TIME: 0 days 2 hours 40 minutes 20 seconds 363 msec
