                         Program Version 5.0.2 -  RELEASE  -
|  1> ! RHF CCSD(T) def2-TZVP TightSCF
|  2>
|  3> * xyz 0 2
|  4> F 0 0 0
|  5> **                         ****END OF INPUT****

CARTESIAN COORDINATES (ANGSTROEM)
---------------------------------
  F      0.000000    0.000000    0.000000

 Total Charge           Charge          ....    0
 Multiplicity           Mult            ....    2
 Number of Electrons    NEL             ....    9
 Basis Dimension        Dim             ....   31

ORBITAL ENERGIES
----------------
                 SPIN UP ORBITALS
  NO   OCC          E(Eh)            E(eV)
   0   1.0000     -26.405361      -718.5264
   1   1.0000      -1.670500       -45.4566
   2   1.0000      -0.843449       -22.9514
   3   1.0000      -0.730156       -19.8685
   4   1.0000      -0.730156       -19.8685
   5   0.0000       0.624508        16.9937
   6   0.0000       0.639676        17.4065
   7   0.0000       0.678066        18.4511
   8   0.0000       0.678066        18.4511
   9   0.0000       2.149074        58.4793

                 SPIN DOWN ORBITALS
  NO   OCC          E(Eh)            E(eV)
   0   1.0000     -26.356886      -717.2073
   1   1.0000      -1.475615       -40.1535
   2   1.0000      -0.678667       -18.4675
   3   1.0000      -0.678667       -18.4675
   4   0.0000       0.058294         1.5862
   5   0.0000       0.649509        17.6740
   6   0.0000       0.689861        18.7721
   7   0.0000       0.689861        18.7721
   8   0.0000       0.782002        21.2794

E(0)                                       ...    -99.411798500
E(0)                                       ...    -99.411798500
E(CORR)                                    ...     -0.209823997
E(TOT)                                     ...    -99.621622497
E(CCSD(T))                                 ...    -99.625056978

MULLIKEN ATOMIC CHARGES AND SPIN DENSITIES
------------------------------------------
   0 F :   -0.000000    1.000000
Sum of atomic charges       :   -0.0000000

LOEWDIN ATOMIC CHARGES AND SPIN DENSITIES
-----------------------------------------
   0 F :   -0.000000    1.000000

FINAL SINGLE POINT ENERGY       -99.625056978450

DIPOLE MOMENT
-------------
                                X             Y             Z
Electronic contribution:      0.00000       0.00000      -0.00000
Nuclear contribution   :      0.00000       0.00000       0.00000
                        -----------------------------------------
Total Dipole Moment    :      0.00000       0.00000      -0.00000
                        -----------------------------------------
Magnitude (a.u.)       :      0.00000
Magnitude (Debye)      :      0.00000

Rotational constants in cm-1:     0.000000     0.000000     0.000000
Rotational constants in MHz :     0.000000     0.000000     0.000000

                             ****ORCA TERMINATED NORMALLY****
TOTAL RUN TIME: 0 days 0 hours 2 minutes 35 seconds 130 msec
