                         Program Version 5.0.2 -  RELEASE  -
|  1> ! RHF CCSD(T) def2-TZVP TightSCF
|  2>
|  3> %scf BrokenSym 1,1 end
|  4>
|  5> * xyz 0 2
|  6> F 0 0 0
|  7> **                         ****END OF INPUT****

CARTESIAN COORDINATES (ANGSTROEM)
---------------------------------
  F      0.000000    0.000000    0.000000

 Total Charge           Charge          ....    0
 Multiplicity           Mult            ....    2
 Number of Electrons    NEL             ....    9
 Basis Dimension        Dim             ....   31

ORBITAL ENERGIES
----------------
                 SPIN UP ORBITALS
  NO   OCC          E(Eh)            E(eV)
   0   1.0000     -27.151250      -738.8231
   1   1.0000      -2.205282       -60.0088
   2   1.0000      -1.490674       -40.5633
   3   1.0000      -1.368041       -37.2263
   4   0.0000      -0.535913       -14.5829
   5   0.0000       0.201827         5.4920
   6   0.0000       0.231417         6.2972
   7   0.0000       0.263819         7.1789
   8   0.0000       0.324853         8.8397

                 SPIN DOWN ORBITALS
  NO   OCC          E(Eh)            E(eV)
   0   1.0000     -27.151250      -738.8231
   1   1.0000      -2.205282       -60.0088
   2   1.0000      -1.490674       -40.5633
   3   1.0000      -1.368041       -37.2263
   4   0.0000      -0.535913       -14.5829
   5   0.0000       0.201827         5.4920
   6   0.0000       0.231417         6.2972
   7   0.0000       0.263819         7.1789
   8   0.0000       0.324853         8.8397

MULLIKEN ATOMIC CHARGES AND SPIN POPULATIONS
--------------------------------------------
   0 F :    1.000000    0.000000
Sum of atomic charges         :    1.0000000

E(0)                                       ...    -98.789564766
E(0)                                       ...    -98.789564766
E(CORR)                                    ...     -0.173013375
E(TOT)                                     ...    -98.962578142
E(CCSD(T))                                 ...    -98.976676127

LOEWDIN ATOMIC CHARGES AND SPIN DENSITIES
-----------------------------------------
   0 F :    1.000000    0.000000

FINAL SINGLE POINT ENERGY       -98.976676127145

DIPOLE MOMENT
-------------
                                X             Y             Z
Electronic contribution:     -0.00000       0.00000      -0.00000
Nuclear contribution   :      0.00000       0.00000       0.00000
                        -----------------------------------------
Total Dipole Moment    :     -0.00000       0.00000      -0.00000
                        -----------------------------------------
Magnitude (a.u.)       :      0.00000
Magnitude (Debye)      :      0.00000

Rotational constants in cm-1:     0.000000     0.000000     0.000000
Rotational constants in MHz :     0.000000     0.000000     0.000000

                             ****ORCA TERMINATED NORMALLY****
TOTAL RUN TIME: 0 days 0 hours 3 minutes 2 seconds 898 msec
