                         Program Version 5.0.2 -  RELEASE  -
|  1> ! PBEh-3c Opt
|  2>
|  3> *xyzfile 0 1 acetone.xyz
|  4>
|  5>
|  6>                          ****END OF INPUT****
 Total Charge           Charge          ....    0
 Multiplicity           Mult            ....    1
 Number of Electrons    NEL             ....   32
Dispersion correction           -0.003277931
FINAL SINGLE POINT ENERGY      -192.731911861699
Dispersion correction            ... done
Dispersion correction           -0.003282591
FINAL SINGLE POINT ENERGY      -192.734744981538
Dispersion correction            ... done
Dispersion correction           -0.003281633
FINAL SINGLE POINT ENERGY      -192.735043301014
Dispersion correction            ... done
Dispersion correction           -0.003281101
FINAL SINGLE POINT ENERGY      -192.735093986477
Dispersion correction            ... done
Dispersion correction           -0.003281264
FINAL SINGLE POINT ENERGY      -192.735096236683
Dispersion correction            ... done
                    ***********************HURRAY********************

CARTESIAN COORDINATES (ANGSTROEM)
---------------------------------
  C     -7.108905    1.387198   -0.000000
  C     -5.857466    2.239815   -0.000006
  C     -4.515106    1.538228    0.000001
  O     -5.927614    3.441591   -0.000007
  H     -6.908692    0.318270    0.000004
  H     -7.715105    1.627575   -0.874473
  H     -7.715103    1.627582    0.874472
  H     -4.590570    0.453426   -0.000010
  H     -3.941513    1.847574    0.874656
  H     -3.941495    1.847591   -0.874636

 Multiplicity           Mult            ....    1
 Number of Electrons    NEL             ....   32
 Basis Dimension        Dim             ....   72

ORBITAL ENERGIES
----------------

  NO   OCC          E(Eh)            E(eV)
   0   2.0000     -19.481291      -530.1129
   1   2.0000     -10.538524      -286.7678
   2   2.0000     -10.439919      -284.0846
   3   2.0000     -10.439842      -284.0825
   4   2.0000      -1.154483       -31.4151
   5   2.0000      -0.855583       -23.2816
   6   2.0000      -0.798398       -21.7255
   7   2.0000      -0.604192       -16.4409
   8   2.0000      -0.524789       -14.2802
   9   2.0000      -0.517346       -14.0777
  10   2.0000      -0.516878       -14.0650
  11   2.0000      -0.463167       -12.6034
  12   2.0000      -0.458274       -12.4703
  13   2.0000      -0.432113       -11.7584
  14   2.0000      -0.395507       -10.7623
  15   2.0000      -0.303554        -8.2601
  16   0.0000       0.015093         0.4107
  17   0.0000       0.143427         3.9029
  18   0.0000       0.169610         4.6153
  19   0.0000       0.195517         5.3203
  20   0.0000       0.215797         5.8721

MULLIKEN ATOMIC CHARGES
-----------------------
   0 C :   -0.746178
   1 C :    0.354198
   2 C :   -0.745904
   3 O :   -0.336860
   4 H :    0.219786
   5 H :    0.258797
   6 H :    0.258797
   7 H :    0.219792
   8 H :    0.258786
   9 H :    0.258786
Sum of atomic charges:   -0.0000000

LOEWDIN ATOMIC CHARGES
----------------------
   0 C :   -0.401415
   1 C :    0.098211
   2 C :   -0.401395
   3 O :   -0.191649
   4 H :    0.130983
   5 H :    0.158566
   6 H :    0.158566
   7 H :    0.131019
   8 H :    0.158557
   9 H :    0.158557

  Mayer bond orders larger than 0.100000
B(  0-C ,  1-C ) :   0.9285 B(  0-C ,  4-H ) :   0.9209 B(  0-C ,  5-H ) :   0.9107
B(  0-C ,  6-H ) :   0.9107 B(  1-C ,  2-C ) :   0.9286 B(  1-C ,  3-O ) :   2.1271
B(  2-C ,  7-H ) :   0.9209 B(  2-C ,  8-H ) :   0.9107 B(  2-C ,  9-H ) :   0.9107

Dispersion correction           -0.003281406
FINAL SINGLE POINT ENERGY      -192.735096869685

DIPOLE MOMENT
-------------
                                X             Y             Z
Electronic contribution:     -0.21950       3.77749      -0.00002
Nuclear contribution   :      0.28112      -4.84007       0.00003
                        -----------------------------------------
Total Dipole Moment    :      0.06162      -1.06258       0.00000
                        -----------------------------------------
Magnitude (a.u.)       :      1.06437
Magnitude (Debye)      :      2.70540

Rotational constants in cm-1:     0.348794     0.277515     0.163812
Rotational constants in MHz : 10456.578112  8319.694946  4910.963390

                             ****ORCA TERMINATED NORMALLY****
TOTAL RUN TIME: 0 days 0 hours 0 minutes 52 seconds 305 msec
