                         Program Version 5.0.2 -  RELEASE  -
|  1> ! PBEh-3c Opt
|  2> ! CPCM(Water)
|  3>
|  4> *xyzfile 0 1 acetone.xyz
|  5>
|  6>
|  7>                          ****END OF INPUT****
 Total Charge           Charge          ....    0
 Multiplicity           Mult            ....    1
 Number of Electrons    NEL             ....   32
Dispersion correction           -0.003277931
FINAL SINGLE POINT ENERGY      -192.740594138183
Dispersion correction            ... done
Dispersion correction           -0.003285660
FINAL SINGLE POINT ENERGY      -192.742942607524
Dispersion correction            ... done
Dispersion correction           -0.003285967
FINAL SINGLE POINT ENERGY      -192.743143697386
Dispersion correction            ... done
Dispersion correction           -0.003285687
FINAL SINGLE POINT ENERGY      -192.743190029363
Dispersion correction            ... done
Dispersion correction           -0.003285610
FINAL SINGLE POINT ENERGY      -192.743191794352
Dispersion correction            ... done
                    ***********************HURRAY********************

CARTESIAN COORDINATES (ANGSTROEM)
---------------------------------
  C     -7.105751    1.388171   -0.000001
  C     -5.857263    2.235131   -0.000010
  C     -4.518438    1.538758   -0.000000
  O     -5.927673    3.444418   -0.000003
  H     -6.900425    0.320958    0.000005
  H     -7.711200    1.626790   -0.876247
  H     -7.711196    1.626801    0.876246
  H     -4.598928    0.455045   -0.000010
  H     -3.945359    1.846381    0.876389
  H     -3.945338    1.846397   -0.876370

 Multiplicity           Mult            ....    1
 Number of Electrons    NEL             ....   32
 Basis Dimension        Dim             ....   72

ORBITAL ENERGIES
----------------

  NO   OCC          E(Eh)            E(eV)
   0   2.0000     -19.486104      -530.2438
   1   2.0000     -10.541577      -286.8509
   2   2.0000     -10.430528      -283.8291
   3   2.0000     -10.430452      -283.8270
   4   2.0000      -1.156464       -31.4690
   5   2.0000      -0.851209       -23.1626
   6   2.0000      -0.791335       -21.5333
   7   2.0000      -0.602253       -16.3881
   8   2.0000      -0.521415       -14.1884
   9   2.0000      -0.517406       -14.0793
  10   2.0000      -0.512696       -13.9512
  11   2.0000      -0.454145       -12.3579
  12   2.0000      -0.453963       -12.3530
  13   2.0000      -0.423180       -11.5153
  14   2.0000      -0.396617       -10.7925
  15   2.0000      -0.308917        -8.4061
  16   0.0000       0.013391         0.3644
  17   0.0000       0.156676         4.2634
  18   0.0000       0.180243         4.9047
  19   0.0000       0.207880         5.6567
  20   0.0000       0.224674         6.1137

MULLIKEN ATOMIC CHARGES
-----------------------
   0 C :   -0.764740
   1 C :    0.366643
   2 C :   -0.764609
   3 O :   -0.405473
   4 H :    0.245791
   5 H :    0.269139
   6 H :    0.269139
   7 H :    0.245858
   8 H :    0.269127
   9 H :    0.269126
Sum of atomic charges:    0.0000000

LOEWDIN ATOMIC CHARGES
----------------------
   0 C :   -0.404554
   1 C :    0.112923
   2 C :   -0.404637
   3 O :   -0.249418
   4 H :    0.143958
   5 H :    0.164441
   6 H :    0.164441
   7 H :    0.144013
   8 H :    0.164417
   9 H :    0.164416

  Mayer bond orders larger than 0.100000
B(  0-C ,  1-C ) :   0.9404 B(  0-C ,  4-H ) :   0.9124 B(  0-C ,  5-H ) :   0.9030
B(  0-C ,  6-H ) :   0.9030 B(  1-C ,  2-C ) :   0.9406 B(  1-C ,  3-O ) :   2.0734
B(  2-C ,  7-H ) :   0.9123 B(  2-C ,  8-H ) :   0.9030 B(  2-C ,  9-H ) :   0.9030

Dispersion correction           -0.003285571
FINAL SINGLE POINT ENERGY      -192.743192435025

DIPOLE MOMENT
-------------
                                X             Y             Z
Electronic contribution:     -0.20178       3.46125      -0.00003
Nuclear contribution   :      0.28121      -4.84042       0.00003
                        -----------------------------------------
Total Dipole Moment    :      0.07943      -1.37916       0.00000
                        -----------------------------------------
Magnitude (a.u.)       :      1.38145
Magnitude (Debye)      :      3.51137

Rotational constants in cm-1:     0.348199     0.278838     0.164180
Rotational constants in MHz : 10438.737035  8359.350471  4921.979285

                             ****ORCA TERMINATED NORMALLY****
TOTAL RUN TIME: 0 days 0 hours 0 minutes 53 seconds 208 msec
