                         Program Version 5.0.2 -  RELEASE  -
|  1> ! PBEh-3c Opt
|  2>
|  3> *xyzfile 1 1 Ar-1.xyz
|  4>
|  5>                          ****END OF INPUT****
 Total Charge           Charge          ....    1
 Multiplicity           Mult            ....    1
 Number of Electrons    NEL             ....   20
Dispersion correction           -0.001643659
FINAL SINGLE POINT ENERGY      -115.202552414181
Dispersion correction            ... done
Dispersion correction           -0.001637902
FINAL SINGLE POINT ENERGY      -115.248796881778
Dispersion correction            ... done
Dispersion correction           -0.001634112
FINAL SINGLE POINT ENERGY      -115.288532699417
Dispersion correction            ... done
FINAL SINGLE POINT ENERGY      -115.321575613527
FINAL SINGLE POINT ENERGY      -115.348952024678
FINAL SINGLE POINT ENERGY      -115.371521224042
FINAL SINGLE POINT ENERGY      -115.389823006931
FINAL SINGLE POINT ENERGY      -115.404324532705
FINAL SINGLE POINT ENERGY      -115.415524916804
FINAL SINGLE POINT ENERGY      -115.424014940552
FINAL SINGLE POINT ENERGY      -115.445534063575
FINAL SINGLE POINT ENERGY      -115.449795929728
FINAL SINGLE POINT ENERGY      -115.453386138702
FINAL SINGLE POINT ENERGY      -115.456142844283
FINAL SINGLE POINT ENERGY      -115.458123975584
FINAL SINGLE POINT ENERGY      -115.459575360046
FINAL SINGLE POINT ENERGY      -115.460682304850
Dispersion correction            ... done
Dispersion correction           -0.001590898
FINAL SINGLE POINT ENERGY      -115.461277863186
Dispersion correction            ... done
Dispersion correction           -0.001590833
FINAL SINGLE POINT ENERGY      -115.461330731816
Dispersion correction            ... done
                    ***********************HURRAY********************

CARTESIAN COORDINATES (ANGSTROEM)
---------------------------------
  C     -4.781620   -5.094233   -6.946937
  C     -3.887844   -4.204833   -6.450393
  C     -5.079877   -4.384767   -5.831480
  H     -2.928031   -3.711986   -6.506692
  H     -5.055210   -5.828675   -7.690588
  H     -5.767217   -4.142096   -5.033990

 Multiplicity           Mult            ....    1
 Number of Electrons    NEL             ....   20
 Basis Dimension        Dim             ....   51

ORBITAL ENERGIES
----------------

  NO   OCC          E(Eh)            E(eV)
   0   2.0000     -10.785127      -293.4782
   1   2.0000     -10.783958      -293.4464
   2   2.0000     -10.783937      -293.4458
   3   2.0000      -1.329875       -36.1877
   4   2.0000      -0.934415       -25.4267
   5   2.0000      -0.934363       -25.4253
   6   2.0000      -0.869524       -23.6609
   7   2.0000      -0.715555       -19.4713
   8   2.0000      -0.697418       -18.9777
   9   2.0000      -0.697288       -18.9742
  10   0.0000      -0.259734        -7.0677
  11   0.0000      -0.259717        -7.0672
  12   0.0000      -0.064743        -1.7617
  13   0.0000      -0.057663        -1.5691
  14   0.0000      -0.057545        -1.5659

MULLIKEN ATOMIC CHARGES
-----------------------
   0 C :   -0.005360
   1 C :   -0.005476
   2 C :   -0.005457
   3 H :    0.338740
   4 H :    0.338786
   5 H :    0.338766
Sum of atomic charges:    1.0000000

LOEWDIN ATOMIC CHARGES
----------------------
   0 C :    0.113222
   1 C :    0.113146
   2 C :    0.113192
   3 H :    0.220145
   4 H :    0.220141
   5 H :    0.220154

  Mayer bond orders larger than 0.100000
B(  0-C ,  1-C ) :   1.3127 B(  0-C ,  2-C ) :   1.3128 B(  0-C ,  4-H ) :   0.8726
B(  1-C ,  2-C ) :   1.3129 B(  1-C ,  3-H ) :   0.8726 B(  2-C ,  5-H ) :   0.8726

Dispersion correction           -0.001590826
FINAL SINGLE POINT ENERGY      -115.461331346855

DIPOLE MOMENT
-------------
                                X             Y             Z
Electronic contribution:      0.00053      -0.00070       0.00124
Nuclear contribution   :     -0.00097       0.00093      -0.00213
                        -----------------------------------------
Total Dipole Moment    :     -0.00043       0.00024      -0.00089
                        -----------------------------------------
Magnitude (a.u.)       :      0.00101
Magnitude (Debye)      :      0.00258

Rotational constants in cm-1:     1.035902     1.035629     0.517883
Rotational constants in MHz : 31055.568696 31047.377781 15525.739263

                             ****ORCA TERMINATED NORMALLY****
TOTAL RUN TIME: 0 days 0 hours 3 minutes 43 seconds 11 msec
