   * xtb version 6.5.1 (579679a) compiled by 'ehlert@majestix' on 2022-07-11
          program call               : xtb end.xyz --opt

   ID    Z sym.   atoms
    1    6 C      1-3, 5, 6
    2    8 O      4
    3    1 H      7-14

          :  Hamiltonian                  GFN2-xTB          :
 * total energy  :   -18.7782945 Eh     change       -0.2651070E-09 Eh
 * total energy  :   -18.7825270 Eh     change       -0.4232506E-02 Eh
 * total energy  :   -18.7837511 Eh     change       -0.1224173E-02 Eh
 * total energy  :   -18.7848807 Eh     change       -0.1129553E-02 Eh
 * total energy  :   -18.7857207 Eh     change       -0.8400568E-03 Eh
 * total energy  :   -18.7864079 Eh     change       -0.6871976E-03 Eh
 * total energy  :   -18.7871400 Eh     change       -0.7320333E-03 Eh
 * total energy  :   -18.7875352 Eh     change       -0.3952208E-03 Eh
 * total energy  :   -18.7878079 Eh     change       -0.2726874E-03 Eh
 * total energy  :   -18.7880171 Eh     change       -0.2092084E-03 Eh
 * total energy  :   -18.7903369 Eh     change       -0.1302767E-03 Eh
 * total energy  :   -18.7903537 Eh     change       -0.1685985E-04 Eh
 * total energy  :   -18.7903706 Eh     change       -0.1685782E-04 Eh
 * total energy  :   -18.7903819 Eh     change       -0.1131097E-04 Eh
 * total energy  :   -18.7903916 Eh     change       -0.9719258E-05 Eh
 * total energy  :   -18.7903965 Eh     change       -0.4850071E-05 Eh
 * total energy  :   -18.7904033 Eh     change       -0.6852026E-05 Eh
 * total energy  :   -18.7904047 Eh     change       -0.1386583E-05 Eh
 * total energy  :   -18.7904061 Eh     change       -0.1354385E-05 Eh
   *** GEOMETRY OPTIMIZATION CONVERGED AFTER 38 ITERATIONS ***

 final structure:
================
14
 xtb: 6.5.1 (579679a)
C           -5.51204884105797        1.56144762581944        0.61989073082181
C           -5.44032473724879        2.60334596582089       -0.45289833292825
C           -5.56981016247767        3.89951352599546       -0.24558780287813
O           -1.95126986339103        1.52734783420345        0.50199781630215
C           -3.03539071391171        1.60706542688266        1.00573862639442
C           -4.21682040683756        0.74349785602901        0.67349169573333
H           -6.34472979673708        0.88428285176563        0.41105471019233
H           -5.69184720637339        2.03480281866287        1.58716690249088
H           -5.25813279234763        2.22508512171714       -1.45026341475208
H           -5.75052390892667        4.30284551471459        0.73773893173302
H           -5.50732383241895        4.61459620657160       -1.04765828875997
H           -3.24525236442638        2.35588422887416        1.79595220537922
H           -4.03542128224569        0.22912312925488       -0.27188674839160
H           -4.29508409159967       -0.01032810631178        1.46284296866278

          :  Hamiltonian                  GFN2-xTB          :
         :: total energy             -18.790406075908 Eh    ::
         :: gradient norm              0.000824648564 Eh/a0 ::
         :: HOMO-LUMO gap              3.785964506502 eV    ::
         :: SCC energy               -19.064657823388 Eh    ::
         :: -> dispersion             -0.007867965633 Eh    ::
         :: repulsion energy           0.274233639379 Eh    ::

    * Orbital Energies and Occupations

         #    Occupation            Energy/Eh            Energy/eV
      -------------------------------------------------------------
         1        2.0000           -0.7201654             -19.5967
       ...           ...                  ...                  ...
         5        2.0000           -0.5930965             -16.1390
         6        2.0000           -0.5643211             -15.3560
         7        2.0000           -0.5482374             -14.9183
         8        2.0000           -0.5460776             -14.8595
         9        2.0000           -0.5361501             -14.5894
        10        2.0000           -0.5084125             -13.8346
        11        2.0000           -0.5034433             -13.6994
        12        2.0000           -0.4900591             -13.3352
        13        2.0000           -0.4676336             -12.7250
        14        2.0000           -0.4578222             -12.4580
        15        2.0000           -0.4387184             -11.9381
        16        2.0000           -0.4142142             -11.2713
        17        2.0000           -0.4033275             -10.9751 (HOMO)
        18                         -0.2641958              -7.1891 (LUMO)
        19                         -0.2112203              -5.7476
        20                          0.0838170               2.2808
        21                          0.0951447               2.5890
        22                          0.1077218               2.9313
        23                          0.1194321               3.2499
        24                          0.1452804               3.9533
        25                          0.1668706               4.5408
        26                          0.1935110               5.2657
        27                          0.2174585               5.9173
        28                          0.2452464               6.6735
       ...                                ...                  ...
        32                          0.6168702              16.7859
      -------------------------------------------------------------
                  HL-Gap            0.1391316 Eh            3.7860 eV

     #   Z          covCN         q      C6AA      α(0)
     1   6 C        3.808    -0.059    21.624     6.620
     2   6 C        2.887    -0.030    28.754     8.791
     3   6 C        2.837    -0.093    30.318     9.023
     4   8 O        0.856    -0.322    20.178     6.023
     5   6 C        2.758     0.218    23.402     7.922
     6   6 C        3.804    -0.083    22.081     6.690
     7   1 H        0.924     0.051     2.311     2.377
     8   1 H        0.924     0.045     2.389     2.417
     9   1 H        0.925     0.038     2.478     2.462
    10   1 H        0.926     0.038     2.477     2.461
    11   1 H        0.926     0.041     2.438     2.442
    12   1 H        0.922     0.020     2.739     2.588
    13   1 H        0.924     0.068     2.107     2.270
    14   1 H        0.924     0.069     2.095     2.264

Wiberg/Mayer (AO) data.
largest (>0.10) Wiberg bond orders for each atom

     #   Z sym  total        # sym  WBO       # sym  WBO       # sym  WBO
 ---------------------------------------------------------------------------
     1   6 C    3.995 --     2 C    1.024     6 C    0.981     8 H    0.974
                             7 H    0.961
     2   6 C    3.991 --     3 C    1.983     1 C    1.024     9 H    0.966
     3   6 C    3.992 --     2 C    1.983    11 H    0.977    10 H    0.975
     4   8 O    2.095 --     5 C    1.931
     5   6 C    3.912 --     4 O    1.931     6 C    1.010    12 H    0.930
     6   6 C    3.995 --     5 C    1.010     1 C    0.981    13 H    0.969
                            14 H    0.938
     7   1 H    0.997 --     1 C    0.961
     8   1 H    0.998 --     1 C    0.974
     9   1 H    0.999 --     2 C    0.966
    10   1 H    0.999 --     3 C    0.975
    11   1 H    0.998 --     3 C    0.977
    12   1 H    1.000 --     5 C    0.930
    13   1 H    0.995 --     6 C    0.969
    14   1 H    0.995 --     6 C    0.938
 ---------------------------------------------------------------------------

molecular dipole:
                 x           y           z       tot (Debye)
 q only:       -1.003      -0.194       0.267
   full:       -1.155      -0.199       0.384       3.134

           -------------------------------------------------
          | TOTAL ENERGY              -18.790406075908 Eh   |
          | GRADIENT NORM               0.000824648564 Eh/α |
          | HOMO-LUMO GAP               3.785964506502 eV   |
           -------------------------------------------------

 * finished run on 2023/06/22 at 18:13:41.581
