                         Program Version 5.0.2 -  RELEASE  -
|  1> !PBE RI pcSseg-2 def2/J NMR
|  2> ! CPCM(Water)
|  3>
|  4> *xyzfile 0 1 OPT_TMS.xyz
|  5>
|  6>
|  7>                          ****END OF INPUT****

CARTESIAN COORDINATES (ANGSTROEM)
---------------------------------
  Si    -2.021649    1.206859   -0.015212
  C     -0.732782    2.580156    0.092370
  C     -3.751758    1.958344    0.028180
  C     -1.794206    0.255500   -1.628361
  C     -1.804144    0.031746    1.444182
  H     -0.823842    3.281748   -0.738348
  H      0.282011    2.179231    0.069231
  H     -0.833458    3.154736    1.014820
  H     -3.904862    2.660284   -0.793373
  H     -3.930575    2.502469    0.957048
  H     -4.524193    1.191803   -0.052912
  H     -1.905332    0.907662   -2.496451
  H     -2.527838   -0.545909   -1.729549
  H     -0.804785   -0.200759   -1.690538
  H     -1.932107    0.546573    2.397742
  H     -0.810588   -0.419713    1.450133
  H     -2.529283   -0.783590    1.415918

 Total Charge           Charge          ....    0
 Multiplicity           Mult            ....    1
 Number of Electrons    NEL             ....   50
 Basis Dimension        Dim             ....  355

ORBITAL ENERGIES
----------------

  NO   OCC          E(Eh)            E(eV)
   0   2.0000     -65.359785     -1778.5302
   1   2.0000      -9.848463      -267.9903
   2   2.0000      -9.848417      -267.9891
   3   2.0000      -9.848382      -267.9881
   4   2.0000      -9.848357      -267.9874
   5   2.0000      -5.015037      -136.4661
   6   2.0000      -3.424983       -93.1985
   7   2.0000      -3.424976       -93.1983
   8   2.0000      -3.424947       -93.1975
   9   2.0000      -0.644555       -17.5392
  10   2.0000      -0.604402       -16.4466
  11   2.0000      -0.604266       -16.4429
  12   2.0000      -0.604250       -16.4425
  13   2.0000      -0.403924       -10.9913
  14   2.0000      -0.361080        -9.8255
  15   2.0000      -0.361025        -9.8240
  16   2.0000      -0.360966        -9.8224
  17   2.0000      -0.346571        -9.4307
  18   2.0000      -0.346407        -9.4262
  19   2.0000      -0.329155        -8.9568
  20   2.0000      -0.329109        -8.9555
  21   2.0000      -0.329079        -8.9547
  22   2.0000      -0.254337        -6.9209
  23   2.0000      -0.254146        -6.9157
  24   2.0000      -0.254060        -6.9133
  25   0.0000      -0.003902        -0.1062
  26   0.0000       0.033827         0.9205
  27   0.0000       0.033839         0.9208
  28   0.0000       0.033855         0.9212
  29   0.0000       0.052892         1.4393

MULLIKEN ATOMIC CHARGES
-----------------------
   0 Si:    0.649302
   1 C :   -0.337245
   2 C :   -0.337113
   3 C :   -0.337570
   4 C :   -0.335921
   5 H :    0.058170
   6 H :    0.058319
   7 H :    0.058326
   8 H :    0.058117
   9 H :    0.058474
  10 H :    0.058332
  11 H :    0.058057
  12 H :    0.058237
  13 H :    0.058529
  14 H :    0.058074
  15 H :    0.057866
  16 H :    0.058046
Sum of atomic charges:    0.0000000

LOEWDIN ATOMIC CHARGES
----------------------
   0 Si:    0.944284
   1 C :   -0.290970
   2 C :   -0.290959
   3 C :   -0.291038
   4 C :   -0.290998
   5 H :    0.018142
   6 H :    0.018375
   7 H :    0.018391
   8 H :    0.018361
   9 H :    0.018258
  10 H :    0.018361
  11 H :    0.018324
  12 H :    0.018259
  13 H :    0.018294
  14 H :    0.018247
  15 H :    0.018361
  16 H :    0.018308

  Mayer bond orders larger than 0.100000
B(  0-Si,  1-C ) :   0.9389 B(  0-Si,  2-C ) :   0.9385 B(  0-Si,  3-C ) :   0.9387
B(  0-Si,  4-C ) :   0.9386 B(  1-C ,  5-H ) :   0.9831 B(  1-C ,  6-H ) :   0.9830
B(  1-C ,  7-H ) :   0.9832 B(  2-C ,  8-H ) :   0.9830 B(  2-C ,  9-H ) :   0.9832
B(  2-C , 10-H ) :   0.9831 B(  3-C , 11-H ) :   0.9831 B(  3-C , 12-H ) :   0.9832
B(  3-C , 13-H ) :   0.9831 B(  4-C , 14-H ) :   0.9833 B(  4-C , 15-H ) :   0.9831
B(  4-C , 16-H ) :   0.9831

FINAL SINGLE POINT ENERGY      -448.881903553111

DIPOLE MOMENT
-------------
                                X             Y             Z
Electronic contribution:     -0.00755       0.00416       0.00821
Nuclear contribution   :      0.00645      -0.00372      -0.00689
                        -----------------------------------------
Total Dipole Moment    :     -0.00110       0.00044       0.00133
                        -----------------------------------------
Magnitude (a.u.)       :      0.00177
Magnitude (Debye)      :      0.00451

Rotational constants in cm-1:     0.102667     0.102393     0.102361
Rotational constants in MHz :  3077.876201  3069.655695  3068.696258

CHEMICAL SHIELDING SUMMARY (ppm)
--------------------------------

  Nucleus  Element    Isotropic     Anisotropy
  -------  -------  ------------   ------------
      0       Si         323.533          0.729
      1       C          182.879         10.918
      2       C          182.906         10.952
      3       C          182.879         10.958
      4       C          182.890         10.927
      5       H           31.482          9.489
      6       H           31.475          9.445
      7       H           31.467          9.458
      8       H           31.472          9.452
      9       H           31.472          9.496
     10       H           31.472          9.465
     11       H           31.474          9.449
     12       H           31.478          9.469
     13       H           31.477          9.477
     14       H           31.477          9.480
     15       H           31.478          9.443
     16       H           31.470          9.482

                             ****ORCA TERMINATED NORMALLY****
TOTAL RUN TIME: 0 days 0 hours 1 minutes 18 seconds 692 msec
