                         Program Version 5.0.2 -  RELEASE  -
|  1> ! PBEh-3c Opt
|  2>
|  3> *xyzfile 0 1 H.xyz
|  4>
|  5>
|  6>                          ****END OF INPUT****
 Total Charge           Charge          ....    0
 Multiplicity           Mult            ....    1
 Number of Electrons    NEL             ....  118
Dispersion correction           -0.030885528
FINAL SINGLE POINT ENERGY      -621.516085860199
Dispersion correction            ... done
Dispersion correction           -0.031458546
FINAL SINGLE POINT ENERGY      -621.541591330841
Dispersion correction            ... done
Dispersion correction           -0.031654518
FINAL SINGLE POINT ENERGY      -621.547806485106
Dispersion correction            ... done
FINAL SINGLE POINT ENERGY      -621.549154042276
FINAL SINGLE POINT ENERGY      -621.549431438313
FINAL SINGLE POINT ENERGY      -621.549532729281
FINAL SINGLE POINT ENERGY      -621.549564218410
Dispersion correction            ... done
Dispersion correction           -0.031582602
FINAL SINGLE POINT ENERGY      -621.549573125182
Dispersion correction            ... done
Dispersion correction           -0.031583159
FINAL SINGLE POINT ENERGY      -621.549576588019
Dispersion correction            ... done
                    ***********************HURRAY********************

CARTESIAN COORDINATES (ANGSTROEM)
---------------------------------
  C     -3.229516   -2.688485   -3.338115
  C     -2.788775   -1.369920   -3.432692
  C     -2.131919   -1.398132   -1.130777
  C     -2.514482   -2.729800   -1.025535
  C     -3.142524   -3.339647   -2.110981
  C     -2.143178   -0.758980   -2.366336
  C     -1.012647    0.190998   -2.661641
  C     -1.731413   -3.582311   -0.058023
  C     -3.190220   -3.510219   -4.600902
  C     -1.737936   -3.556588   -5.153527
  C     -0.617395   -4.039251   -4.208539
  C     -0.214092   -3.501473   -0.392684
  C      0.273441   -3.907956   -1.803923
  C     -0.258885   -3.113702   -3.023036
  C      0.340528   -0.576315   -2.587777
  C      0.526184   -1.854299   -3.440891
  H     -2.702488   -0.919237   -4.416059
  H     -1.542594   -0.962043   -0.330721
  H     -3.317086   -4.410130   -2.076169
  H     -0.967114    1.022632   -1.953227
  H     -1.133647    0.628130   -3.655773
  H     -2.068050   -4.620679   -0.110456
  H     -1.862447   -3.260794    0.978935
  H     -3.837414   -3.098888   -5.380258
  H     -3.542497   -4.526113   -4.405676
  H     -1.486701   -2.567840   -5.547904
  H     -1.744907   -4.217918   -6.024958
  H      0.269959   -4.243983   -4.818282
  H     -0.923323   -5.010872   -3.806948
  H      0.305158   -4.148000    0.321356
  H      0.133804   -2.491055   -0.166623
  H      0.012737   -4.961937   -1.941669
  H      1.368562   -3.887044   -1.782004
  H     -1.198167   -2.745641   -2.707189
  H      0.542578   -0.811112   -1.539813
  H      1.121514    0.131068   -2.881476
  H      1.599258   -2.075204   -3.467861
  H      0.259613   -1.606219   -4.474497

 Multiplicity           Mult            ....    1
 Number of Electrons    NEL             ....  118
 Basis Dimension        Dim             ....  284

ORBITAL ENERGIES
----------------

  NO   OCC          E(Eh)            E(eV)
   0   2.0000     -10.451798      -284.4079
   1   2.0000     -10.451603      -284.4026
   2   2.0000     -10.451031      -284.3870
   3   2.0000     -10.441902      -284.1386
   4   2.0000     -10.441710      -284.1334
   5   2.0000     -10.440459      -284.0993
   6   2.0000     -10.436838      -284.0008
   7   2.0000     -10.436608      -283.9945
   8   2.0000     -10.435835      -283.9735
   9   2.0000     -10.435580      -283.9666
  10   2.0000     -10.435261      -283.9579
  11   2.0000     -10.434857      -283.9469
  12   2.0000     -10.428988      -283.7872
  13   2.0000     -10.428214      -283.7661
  14   2.0000     -10.427836      -283.7558
  15   2.0000     -10.417951      -283.4868
  16   2.0000      -0.975368       -26.5411
  17   2.0000      -0.900518       -24.5043
  18   2.0000      -0.898981       -24.4625
  19   2.0000      -0.896957       -24.4074
  20   2.0000      -0.824139       -22.4260
  21   2.0000      -0.822743       -22.3880
  22   2.0000      -0.819289       -22.2940
  23   2.0000      -0.757714       -20.6184
  24   2.0000      -0.754332       -20.5264
  25   2.0000      -0.702763       -19.1231
  26   2.0000      -0.678729       -18.4692
  27   2.0000      -0.673761       -18.3340
  28   2.0000      -0.632663       -17.2156
  29   2.0000      -0.621833       -16.9209
  30   2.0000      -0.612404       -16.6644
  31   2.0000      -0.564238       -15.3537
  32   2.0000      -0.546055       -14.8589
  33   2.0000      -0.534279       -14.5385
  34   2.0000      -0.518566       -14.1109
  35   2.0000      -0.505875       -13.7656
  36   2.0000      -0.494461       -13.4550
  37   2.0000      -0.490613       -13.3502
  38   2.0000      -0.478648       -13.0247
  39   2.0000      -0.474080       -12.9004
  40   2.0000      -0.463806       -12.6208
  41   2.0000      -0.446332       -12.1453
  42   2.0000      -0.438859       -11.9420
  43   2.0000      -0.437456       -11.9038
  44   2.0000      -0.426688       -11.6108
  45   2.0000      -0.417167       -11.3517
  46   2.0000      -0.413649       -11.2560
  47   2.0000      -0.399506       -10.8711
  48   2.0000      -0.397265       -10.8101
  49   2.0000      -0.396071       -10.7776
  50   2.0000      -0.387026       -10.5315
  51   2.0000      -0.384288       -10.4570
  52   2.0000      -0.376311       -10.2399
  53   2.0000      -0.361244        -9.8299
  54   2.0000      -0.346919        -9.4401
  55   2.0000      -0.337429        -9.1819
  56   2.0000      -0.308398        -8.3919
  57   2.0000      -0.270533        -7.3616
  58   2.0000      -0.268840        -7.3155
  59   0.0000       0.008692         0.2365
  60   0.0000       0.016787         0.4568
  61   0.0000       0.120603         3.2818
  62   0.0000       0.136555         3.7159
  63   0.0000       0.142017         3.8645

MULLIKEN ATOMIC CHARGES
-----------------------
   0 C :    0.078154
   1 C :   -0.262172
   2 C :   -0.256469
   3 C :    0.074065
   4 C :   -0.271796
   5 C :    0.079200
   6 C :   -0.493933
   7 C :   -0.488763
   8 C :   -0.491605
   9 C :   -0.426773
  10 C :   -0.417229
  11 C :   -0.430901
  12 C :   -0.408420
  13 C :   -0.183279
  14 C :   -0.425610
  15 C :   -0.414543
  16 H :    0.207287
  17 H :    0.210300
  18 H :    0.205155
  19 H :    0.231105
  20 H :    0.219926
  21 H :    0.219664
  22 H :    0.232571
  23 H :    0.232065
  24 H :    0.220599
  25 H :    0.206612
  26 H :    0.221976
  27 H :    0.212756
  28 H :    0.203193
  29 H :    0.221160
  30 H :    0.208352
  31 H :    0.204827
  32 H :    0.210373
  33 H :    0.221942
  34 H :    0.211744
  35 H :    0.221470
  36 H :    0.209698
  37 H :    0.207300
Sum of atomic charges:    0.0000000

LOEWDIN ATOMIC CHARGES
----------------------
   0 C :   -0.045027
   1 C :   -0.144775
   2 C :   -0.135962
   3 C :   -0.045301
   4 C :   -0.152837
   5 C :   -0.043722
   6 C :   -0.222072
   7 C :   -0.222471
   8 C :   -0.222669
   9 C :   -0.233488
  10 C :   -0.228336
  11 C :   -0.233312
  12 C :   -0.227529
  13 C :   -0.169129
  14 C :   -0.232024
  15 C :   -0.227716
  16 H :    0.130678
  17 H :    0.130775
  18 H :    0.130812
  19 H :    0.132853
  20 H :    0.127190
  21 H :    0.127314
  22 H :    0.134082
  23 H :    0.133231
  24 H :    0.127448
  25 H :    0.118022
  26 H :    0.126344
  27 H :    0.122642
  28 H :    0.118943
  29 H :    0.125710
  30 H :    0.116969
  31 H :    0.120749
  32 H :    0.122778
  33 H :    0.152848
  34 H :    0.119093
  35 H :    0.125906
  36 H :    0.121695
  37 H :    0.120289

  Mayer bond orders larger than 0.100000
B(  0-C ,  1-C ) :   1.3725 B(  0-C ,  4-C ) :   1.4093 B(  0-C ,  8-C ) :   0.9674
B(  1-C ,  5-C ) :   1.4098 B(  1-C , 16-H ) :   0.9182 B(  2-C ,  3-C ) :   1.3916
B(  2-C ,  5-C ) :   1.3746 B(  2-C , 17-H ) :   0.9199 B(  3-C ,  4-C ) :   1.3915
B(  3-C ,  7-C ) :   0.9645 B(  4-C , 18-H ) :   0.9172 B(  5-C ,  6-C ) :   0.9671
B(  6-C , 14-C ) :   0.9734 B(  6-C , 19-H ) :   0.9146 B(  6-C , 20-H ) :   0.9200
B(  7-C , 11-C ) :   0.9737 B(  7-C , 21-H ) :   0.9207 B(  7-C , 22-H ) :   0.9139
B(  8-C ,  9-C ) :   0.9733 B(  8-C , 23-H ) :   0.9150 B(  8-C , 24-H ) :   0.9204
B(  9-C , 10-C ) :   0.9862 B(  9-C , 25-H ) :   0.9106 B(  9-C , 26-H ) :   0.9187
B( 10-C , 13-C ) :   0.9742 B( 10-C , 27-H ) :   0.9228 B( 10-C , 28-H ) :   0.9197
B( 11-C , 12-C ) :   0.9929 B( 11-C , 29-H ) :   0.9168 B( 11-C , 30-H ) :   0.9081
B( 12-C , 13-C ) :   0.9579 B( 12-C , 31-H ) :   0.9234 B( 12-C , 32-H ) :   0.9230
B( 13-C , 15-C ) :   0.9684 B( 13-C , 33-H ) :   0.8744 B( 14-C , 15-C ) :   0.9852
B( 14-C , 34-H ) :   0.9079 B( 14-C , 35-H ) :   0.9186 B( 15-C , 36-H ) :   0.9202
B( 15-C , 37-H ) :   0.9190

Dispersion correction           -0.031584197
FINAL SINGLE POINT ENERGY      -621.549576810192

DIPOLE MOMENT
-------------
                                X             Y             Z
Electronic contribution:     -9.22950       3.29248       2.65908
Nuclear contribution   :      9.84055      -3.48707      -2.81868
                        -----------------------------------------
Total Dipole Moment    :      0.61105      -0.19459      -0.15960
                        -----------------------------------------
Magnitude (a.u.)       :      0.66085
Magnitude (Debye)      :      1.67974

Rotational constants in cm-1:     0.022378     0.019720     0.018783
Rotational constants in MHz :   670.874952   591.200325   563.096069

                             ****ORCA TERMINATED NORMALLY****
TOTAL RUN TIME: 0 days 0 hours 36 minutes 13 seconds 720 msec
