                         Program Version 5.0.2 -  RELEASE  -
|  1> !PBE RI pcSseg-2 def2/J NMR
|  2>
|  3> *xyzfile 0 1 OPT_D.xyz
|  4>
|  5>
|  6>                          ****END OF INPUT****

CARTESIAN COORDINATES (ANGSTROEM)
---------------------------------
  C     -7.057334    3.989369    2.699594
  C     -5.912888    4.753676    2.342589
  C     -4.803490    4.178479    1.871094
  C     -3.659306    4.942888    1.513553
  H     -5.982842    5.826501    2.469492
  H     -4.733801    3.105615    1.744391
  N     -2.723041    5.544560    1.218789
  N     -7.994858    3.387872    2.990668

 Total Charge           Charge          ....    0
 Multiplicity           Mult            ....    1
 Number of Electrons    NEL             ....   40
 Basis Dimension        Dim             ....  244

ORBITAL ENERGIES
----------------

  NO   OCC          E(Eh)            E(eV)
   0   2.0000     -14.013361      -381.3229
   1   2.0000     -14.013357      -381.3228
   2   2.0000      -9.980457      -271.5820
   3   2.0000      -9.979781      -271.5636
   4   2.0000      -9.951276      -270.7880
   5   2.0000      -9.951271      -270.7878
   6   2.0000      -0.866799       -23.5868
   7   2.0000      -0.861248       -23.4358
   8   2.0000      -0.796598       -21.6765
   9   2.0000      -0.670212       -18.2374
  10   2.0000      -0.538161       -14.6441
  11   2.0000      -0.516127       -14.0445
  12   2.0000      -0.433837       -11.8053
  13   2.0000      -0.395403       -10.7595
  14   2.0000      -0.356876        -9.7111
  15   2.0000      -0.346103        -9.4179
  16   2.0000      -0.340870        -9.2756
  17   2.0000      -0.337913        -9.1951
  18   2.0000      -0.332309        -9.0426
  19   2.0000      -0.289467        -7.8768
  20   0.0000      -0.149082        -4.0567
  21   0.0000      -0.050262        -1.3677
  22   0.0000      -0.041036        -1.1167
  23   0.0000       0.004083         0.1111
  24   0.0000       0.004658         0.1268

MULLIKEN ATOMIC CHARGES
-----------------------
   0 C :    0.022994
   1 C :   -0.007766
   2 C :   -0.007770
   3 C :    0.023012
   4 H :    0.094583
   5 H :    0.094588
   6 N :   -0.109824
   7 N :   -0.109818
Sum of atomic charges:    0.0000000

LOEWDIN ATOMIC CHARGES
----------------------
   0 C :   -0.087554
   1 C :    0.001148
   2 C :    0.001142
   3 C :   -0.087550
   4 H :    0.063224
   5 H :    0.063229
   6 N :    0.023183
   7 N :    0.023178

  Mayer bond orders larger than 0.100000
B(  0-C ,  1-C ) :   1.0239 B(  0-C ,  7-N ) :   2.9585 B(  1-C ,  2-C ) :   1.7352
B(  1-C ,  4-H ) :   0.9925 B(  2-C ,  3-C ) :   1.0239 B(  2-C ,  5-H ) :   0.9925
B(  3-C ,  6-N ) :   2.9585

FINAL SINGLE POINT ENERGY      -262.854710814681

DIPOLE MOMENT
-------------
                                X             Y             Z
Electronic contribution:      0.00040       0.00002       0.00044
Nuclear contribution   :      0.00034      -0.00016       0.00175
                        -----------------------------------------
Total Dipole Moment    :      0.00074      -0.00013       0.00219
                        -----------------------------------------
Magnitude (a.u.)       :      0.00232
Magnitude (Debye)      :      0.00589

Rotational constants in cm-1:     1.564998     0.049996     0.048448
Rotational constants in MHz : 46917.466014  1498.839737  1452.440541

CHEMICAL SHIELDING SUMMARY (ppm)
--------------------------------

  Nucleus  Element    Isotropic     Anisotropy
  -------  -------  ------------   ------------
      0       C           57.753        337.709
      1       C           53.810        152.393
      2       C           53.824        152.409
      3       C           57.771        337.683
      4       H           25.257          4.840
      5       H           25.256          4.842
      6       N          -76.749       -220.882
      7       N          -76.758       -220.836

                             ****ORCA TERMINATED NORMALLY****
TOTAL RUN TIME: 0 days 0 hours 0 minutes 34 seconds 114 msec
