                         Program Version 5.0.2 -  RELEASE  -
|  1> !PBE RI pcSseg-2 def2/J NMR
|  2>
|  3> *xyzfile 1 1 OPT_Ar-4.xyz
|  4>
|  5>
|  6>                          ****END OF INPUT****

CARTESIAN COORDINATES (ANGSTROEM)
---------------------------------
  C      3.513574  -16.925106   -3.084155
  C      2.210886  -17.061252   -2.620868
  C      4.261868  -15.764700   -3.235570
  C      3.893299  -14.454176   -2.959211
  C      2.684106  -13.979796   -2.466776
  C      1.544713  -14.699098   -2.128835
  C      1.334422  -16.070666   -2.196515
  H      4.648700  -13.702782   -3.154250
  H      2.621239  -12.907361   -2.328220
  H      0.710584  -14.113240   -1.762335
  H      0.358025  -16.412744   -1.875566
  H      1.827978  -18.073939   -2.586509
  H      4.011275  -17.845662   -3.363825
  H      5.266352  -15.899537   -3.617864

 Total Charge           Charge          ....    1
 Multiplicity           Mult            ....    1
 Number of Electrons    NEL             ....   48
 Basis Dimension        Dim             ....  350

ORBITAL ENERGIES
----------------

  NO   OCC          E(Eh)            E(eV)
   0   2.0000     -10.112078      -275.1636
   1   2.0000     -10.111921      -275.1594
   2   2.0000     -10.111902      -275.1588
   3   2.0000     -10.111561      -275.1496
   4   2.0000     -10.111548      -275.1492
   5   2.0000     -10.111290      -275.1422
   6   2.0000     -10.111235      -275.1407
   7   2.0000      -0.986857       -26.8537
   8   2.0000      -0.919161       -25.0117
   9   2.0000      -0.919152       -25.0114
  10   2.0000      -0.806236       -21.9388
  11   2.0000      -0.806218       -21.9383
  12   2.0000      -0.681538       -18.5456
  13   2.0000      -0.681534       -18.5455
  14   2.0000      -0.678287       -18.4571
  15   2.0000      -0.605099       -16.4656
  16   2.0000      -0.605086       -16.4652
  17   2.0000      -0.549385       -14.9495
  18   2.0000      -0.549367       -14.9490
  19   2.0000      -0.545989       -14.8571
  20   2.0000      -0.507108       -13.7991
  21   2.0000      -0.507080       -13.7983
  22   2.0000      -0.473620       -12.8879
  23   2.0000      -0.473610       -12.8876
  24   0.0000      -0.315675        -8.5900
  25   0.0000      -0.315641        -8.5890
  26   0.0000      -0.161556        -4.3962
  27   0.0000      -0.135784        -3.6949
  28   0.0000      -0.135742        -3.6937

MULLIKEN ATOMIC CHARGES
-----------------------
   0 C :    0.040256
   1 C :    0.040395
   2 C :    0.040136
   3 C :    0.040179
   4 C :    0.040132
   5 C :    0.040312
   6 C :    0.040088
   7 H :    0.102620
   8 H :    0.102654
   9 H :    0.102695
  10 H :    0.102655
  11 H :    0.102587
  12 H :    0.102634
  13 H :    0.102659
Sum of atomic charges:    1.0000000

LOEWDIN ATOMIC CHARGES
----------------------
   0 C :    0.073249
   1 C :    0.073263
   2 C :    0.073129
   3 C :    0.073206
   4 C :    0.073210
   5 C :    0.073316
   6 C :    0.073207
   7 H :    0.069624
   8 H :    0.069625
   9 H :    0.069624
  10 H :    0.069647
  11 H :    0.069623
  12 H :    0.069636
  13 H :    0.069640

  Mayer bond orders larger than 0.100000
B(  0-C ,  1-C ) :   1.4152 B(  0-C ,  2-C ) :   1.4157 B(  0-C , 12-H ) :   0.9691
B(  1-C ,  6-C ) :   1.4158 B(  1-C , 11-H ) :   0.9691 B(  2-C ,  3-C ) :   1.4155
B(  2-C , 13-H ) :   0.9691 B(  3-C ,  4-C ) :   1.4157 B(  3-C ,  7-H ) :   0.9691
B(  4-C ,  5-C ) :   1.4155 B(  4-C ,  8-H ) :   0.9691 B(  5-C ,  6-C ) :   1.4155
B(  5-C ,  9-H ) :   0.9691 B(  6-C , 10-H ) :   0.9691

FINAL SINGLE POINT ENERGY      -270.406523682940

DIPOLE MOMENT
-------------
                                X             Y             Z
Electronic contribution:     -0.00126       0.00024      -0.00207
Nuclear contribution   :      0.00111      -0.00041       0.00291
                        -----------------------------------------
Total Dipole Moment    :     -0.00015      -0.00017       0.00084
                        -----------------------------------------
Magnitude (a.u.)       :      0.00087
Magnitude (Debye)      :      0.00221

Rotational constants in cm-1:     0.126616     0.126602     0.063304
Rotational constants in MHz :  3795.847663  3795.430792  1897.821020

CHEMICAL SHIELDING SUMMARY (ppm)
--------------------------------

  Nucleus  Element    Isotropic     Anisotropy
  -------  -------  ------------   ------------
      0       C           16.946        217.365
      1       C           16.941        217.395
      2       C           16.998        217.373
      3       C           16.990        217.469
      4       C           17.005        217.455
      5       C           16.953        217.492
      6       C           16.986        217.394
      7       H           22.015          7.742
      8       H           22.013          7.743
      9       H           22.011          7.748
     10       H           22.014          7.741
     11       H           22.016          7.741
     12       H           22.012          7.743
     13       H           22.012          7.744

                             ****ORCA TERMINATED NORMALLY****
TOTAL RUN TIME: 0 days 0 hours 0 minutes 38 seconds 889 msec
