   * xtb version 6.5.1 (579679a) compiled by 'ehlert@majestix' on 2022-07-11
          program call               : xtb start.xyz --opt

   ID    Z sym.   atoms
    1    6 C      1, 2, 7, 8, 11
    2    1 H      3, 4, 6, 9, 10, 12-14
    3    8 O      5

          :  Hamiltonian                  GFN2-xTB          :
 * total energy  :   -18.7699429 Eh     change       -0.3372946E-10 Eh
 * total energy  :   -18.7761239 Eh     change       -0.6180978E-02 Eh
 * total energy  :   -18.7776631 Eh     change       -0.1539243E-02 Eh
 * total energy  :   -18.7777814 Eh     change       -0.1182767E-03 Eh
 * total energy  :   -18.7778547 Eh     change       -0.7336013E-04 Eh
 * total energy  :   -18.7778875 Eh     change       -0.3279662E-04 Eh
 * total energy  :   -18.7779218 Eh     change       -0.3429626E-04 Eh
 * total energy  :   -18.7779397 Eh     change       -0.1784285E-04 Eh
 * total energy  :   -18.7779498 Eh     change       -0.1008757E-04 Eh
 * total energy  :   -18.7779570 Eh     change       -0.7266613E-05 Eh
 * total energy  :   -18.7779625 Eh     change       -0.5419315E-05 Eh
 * total energy  :   -18.7779668 Eh     change       -0.4352586E-05 Eh
   *** GEOMETRY OPTIMIZATION CONVERGED AFTER 12 ITERATIONS ***

 final structure:
================
14
 xtb: 6.5.1 (579679a)
C           -7.97463752984461        1.19955626852457       -0.70312117661625
C           -7.67796142729384        1.88658202833487        0.38807284094034
H           -8.98272464152398        0.87193397329873       -0.87270686629156
H           -7.24739303833367        0.92815821162334       -1.44683717734035
O           -6.48752172266311        2.40370031474751        0.77490847902943
H           -8.42639863028961        2.12928856306041        1.13138177359717
C           -5.38850150809193        2.26757653227145       -0.09797021934981
C           -4.77185679362350        0.89746530907307       -0.14307597629154
H           -4.64201156562200        2.98032933523347        0.27369940338398
H           -5.67242843373353        2.57697173988198       -1.11498646216150
C           -5.08902370934110       -0.10496810067709        0.65282950313262
H           -4.00201079030990        0.79445385446537       -0.89645315637717
H           -5.85019711441709       -0.00723565879047        1.40896249379475
H           -4.60400309491217       -1.06286237104718        0.57850654054990

          :  Hamiltonian                  GFN2-xTB          :
         :: total energy             -18.777966806130 Eh    ::
         :: gradient norm              0.000485129495 Eh/a0 ::
         :: HOMO-LUMO gap              4.616159481038 eV    ::
         :: SCC energy               -19.059245329919 Eh    ::
         :: -> dispersion             -0.008391915301 Eh    ::
         :: repulsion energy           0.281259813034 Eh    ::

    * Orbital Energies and Occupations

         #    Occupation            Energy/Eh            Energy/eV
      -------------------------------------------------------------
         1        2.0000           -0.7104909             -19.3334
       ...           ...                  ...                  ...
         5        2.0000           -0.5818699             -15.8335
         6        2.0000           -0.5582359             -15.1904
         7        2.0000           -0.5534076             -15.0590
         8        2.0000           -0.5368964             -14.6097
         9        2.0000           -0.5176863             -14.0870
        10        2.0000           -0.4949119             -13.4672
        11        2.0000           -0.4873504             -13.2615
        12        2.0000           -0.4632261             -12.6050
        13        2.0000           -0.4598252             -12.5125
        14        2.0000           -0.4449244             -12.1070
        15        2.0000           -0.4359479             -11.8627
        16        2.0000           -0.4093839             -11.1399
        17        2.0000           -0.3786232             -10.3029 (HOMO)
        18                         -0.2089825              -5.6867 (LUMO)
        19                         -0.1870026              -5.0886
        20                          0.0387415               1.0542
        21                          0.0958658               2.6086
        22                          0.1186805               3.2295
        23                          0.1420223               3.8646
        24                          0.1430452               3.8925
        25                          0.1595565               4.3418
        26                          0.1993921               5.4257
        27                          0.2148756               5.8471
        28                          0.2727011               7.4206
       ...                                ...                  ...
        32                          0.6412101              17.4482
      -------------------------------------------------------------
                  HL-Gap            0.1696407 Eh            4.6162 eV

     #   Z          covCN         q      C6AA      α(0)
     1   6 C        2.833    -0.140    31.568     9.207
     2   6 C        2.784     0.102    25.722     8.307
     3   1 H        0.926     0.037     2.491     2.468
     4   1 H        0.926     0.038     2.470     2.458
     5   8 O        1.704    -0.262    18.340     5.782
     6   1 H        0.925     0.045     2.384     2.414
     7   6 C        3.701     0.078    19.432     6.304
     8   6 C        2.883    -0.040    28.981     8.826
     9   1 H        0.924     0.058     2.228     2.334
    10   1 H        0.923     0.039     2.457     2.451
    11   6 C        2.836    -0.083    30.068     8.986
    12   1 H        0.925     0.036     2.507     2.476
    13   1 H        0.926     0.050     2.315     2.379
    14   1 H        0.926     0.041     2.439     2.442

Wiberg/Mayer (AO) data.
largest (>0.10) Wiberg bond orders for each atom

     #   Z sym  total        # sym  WBO       # sym  WBO       # sym  WBO
 ---------------------------------------------------------------------------
     1   6 C    3.978 --     2 C    1.871     3 H    0.978     4 H    0.973
                             5 O    0.137
     2   6 C    3.935 --     1 C    1.871     5 O    1.080     6 H    0.956
     3   1 H    0.999 --     1 C    0.978
     4   1 H    0.999 --     1 C    0.973
     5   8 O    2.254 --     2 C    1.080     7 C    0.975     1 C    0.137
     6   1 H    0.998 --     2 C    0.956
     7   6 C    3.951 --     8 C    1.010     5 O    0.975    10 H    0.955
                             9 H    0.952
     8   6 C    3.990 --    11 C    1.982     7 C    1.010    12 H    0.965
     9   1 H    0.997 --     7 C    0.952
    10   1 H    0.998 --     7 C    0.955
    11   6 C    3.992 --     8 C    1.982    14 H    0.976    13 H    0.974
    12   1 H    0.999 --     8 C    0.965
    13   1 H    0.997 --    11 C    0.974
    14   1 H    0.998 --    11 C    0.976
 ---------------------------------------------------------------------------

molecular dipole:
                 x           y           z       tot (Debye)
 q only:        0.217      -0.063      -0.234
   full:        0.239      -0.061      -0.350       1.088

           -------------------------------------------------
          | TOTAL ENERGY              -18.777966806130 Eh   |
          | GRADIENT NORM               0.000485129495 Eh/α |
          | HOMO-LUMO GAP               4.616159481038 eV   |
           -------------------------------------------------

 * finished run on 2023/06/13 at 16:45:22.994
