                         Program Version 5.0.2 -  RELEASE  -
|  1> !PBE RI pcSseg-2 def2/J NMR
|  2>
|  3> *xyzfile 1 1 OPT_Ar-1.xyz
|  4>
|  5>
|  6>
|  7>
|  8>
|  9>
| 10>                          ****END OF INPUT****

CARTESIAN COORDINATES (ANGSTROEM)
---------------------------------
  C     -4.781620   -5.094233   -6.946937
  C     -3.887844   -4.204833   -6.450393
  C     -5.079877   -4.384767   -5.831480
  H     -2.928031   -3.711986   -6.506692
  H     -5.055210   -5.828675   -7.690588
  H     -5.767217   -4.142096   -5.033990

 Total Charge           Charge          ....    1
 Multiplicity           Mult            ....    1
 Number of Electrons    NEL             ....   20
 Basis Dimension        Dim             ....  150

ORBITAL ENERGIES
----------------

  NO   OCC          E(Eh)            E(eV)
   0   2.0000     -10.220566      -278.1158
   1   2.0000     -10.219720      -278.0927
   2   2.0000     -10.219664      -278.0912
   3   2.0000      -1.148575       -31.2543
   4   2.0000      -0.800370       -21.7792
   5   2.0000      -0.800346       -21.7785
   6   2.0000      -0.748326       -20.3630
   7   2.0000      -0.638417       -17.3722
   8   2.0000      -0.596633       -16.2352
   9   2.0000      -0.596530       -16.2324
  10   0.0000      -0.334676        -9.1070
  11   0.0000      -0.334645        -9.1062
  12   0.0000      -0.159675        -4.3450
  13   0.0000      -0.159607        -4.3431
  14   0.0000      -0.156736        -4.2650

MULLIKEN ATOMIC CHARGES
-----------------------
   0 C :    0.152199
   1 C :    0.151946
   2 C :    0.151805
   3 H :    0.181351
   4 H :    0.181343
   5 H :    0.181357
Sum of atomic charges:    1.0000000

LOEWDIN ATOMIC CHARGES
----------------------
   0 C :    0.249727
   1 C :    0.249566
   2 C :    0.249535
   3 H :    0.083727
   4 H :    0.083717
   5 H :    0.083729

  Mayer bond orders larger than 0.100000
B(  0-C ,  1-C ) :   1.3810 B(  0-C ,  2-C ) :   1.3811 B(  0-C ,  4-H ) :   0.9472
B(  1-C ,  2-C ) :   1.3813 B(  1-C ,  3-H ) :   0.9472 B(  2-C ,  5-H ) :   0.9472

FINAL SINGLE POINT ENERGY      -115.616791469196

DIPOLE MOMENT
-------------
                                X             Y             Z
Electronic contribution:      0.00065      -0.00089       0.00113
Nuclear contribution   :     -0.00097       0.00093      -0.00213
                        -----------------------------------------
Total Dipole Moment    :     -0.00032       0.00004      -0.00100
                        -----------------------------------------
Magnitude (a.u.)       :      0.00105
Magnitude (Debye)      :      0.00267

Rotational constants in cm-1:     1.035902     1.035629     0.517883
Rotational constants in MHz : 31055.568696 31047.377781 15525.739263

CHEMICAL SHIELDING SUMMARY (ppm)
--------------------------------

  Nucleus  Element    Isotropic     Anisotropy
  -------  -------  ------------   ------------
      0       C           -4.762        312.749
      1       C           -4.665        312.613
      2       C           -4.656        312.597
      3       H           20.703          4.341
      4       H           20.701          4.346
      5       H           20.703          4.340

                             ****ORCA TERMINATED NORMALLY****
TOTAL RUN TIME: 0 days 0 hours 0 minutes 6 seconds 211 msec
