                         Program Version 5.0.2 -  RELEASE  -
|  1> ! PBEh-3c Opt
|  2>
|  3> *xyzfile 0 1 water.xyz
|  4>
|  5>
|  6>
|  7>                          ****END OF INPUT****
 Total Charge           Charge          ....    0
 Multiplicity           Mult            ....    1
 Number of Electrons    NEL             ....   10
Dispersion correction           -0.000209587
FINAL SINGLE POINT ENERGY       -76.256069466128
Dispersion correction            ... done
Dispersion correction           -0.000209582
FINAL SINGLE POINT ENERGY       -76.258021572944
Dispersion correction            ... done
Dispersion correction           -0.000209571
FINAL SINGLE POINT ENERGY       -76.258050682449
Dispersion correction            ... done
Dispersion correction           -0.000209565
FINAL SINGLE POINT ENERGY       -76.258054470699
Dispersion correction            ... done
Dispersion correction           -0.000209563
FINAL SINGLE POINT ENERGY       -76.258054777560
Dispersion correction            ... done
                    ***********************HURRAY********************

CARTESIAN COORDINATES (ANGSTROEM)
---------------------------------
  O     -5.359393    1.452161    0.012135
  H     -4.402798    1.464997   -0.022964
  H     -5.643088    1.766202   -0.846671

 Multiplicity           Mult            ....    1
 Number of Electrons    NEL             ....   10
 Basis Dimension        Dim             ....   19

ORBITAL ENERGIES
----------------

  NO   OCC          E(Eh)            E(eV)
   0   2.0000     -19.473441      -529.8993
   1   2.0000      -1.103438       -30.0261
   2   2.0000      -0.584109       -15.8944
   3   2.0000      -0.433692       -11.8014
   4   2.0000      -0.356573        -9.7029
   5   0.0000       0.132524         3.6062
   6   0.0000       0.210742         5.7346
   7   0.0000       0.876817        23.8594
   8   0.0000       0.981335        26.7035
   9   0.0000       0.991675        26.9848

MULLIKEN ATOMIC CHARGES
-----------------------
   0 O :   -0.818198
   1 H :    0.409104
   2 H :    0.409094
Sum of atomic charges:    0.0000000

LOEWDIN ATOMIC CHARGES
----------------------
   0 O :   -0.597214
   1 H :    0.298599
   2 H :    0.298615

  Mayer bond orders larger than 0.100000
B(  0-O ,  1-H ) :   0.8150 B(  0-O ,  2-H ) :   0.8150

Dispersion correction           -0.000209563
FINAL SINGLE POINT ENERGY       -76.258054778288

DIPOLE MOMENT
-------------
                                X             Y             Z
Electronic contribution:     -0.07221      -0.03512       0.09603
Nuclear contribution   :      0.56010       0.27208      -0.74405
                        -----------------------------------------
Total Dipole Moment    :      0.48789       0.23697      -0.64803
                        -----------------------------------------
Magnitude (a.u.)       :      0.84506
Magnitude (Debye)      :      2.14797

Rotational constants in cm-1:    27.719161    14.494982     9.517870
Rotational constants in MHz : 830999.538536 434548.636402 285338.577758

                             ****ORCA TERMINATED NORMALLY****
TOTAL RUN TIME: 0 days 0 hours 0 minutes 7 seconds 367 msec
