                         Program Version 5.0.2 -  RELEASE  -
|  1> ! PBEh-3c Opt
|  2> ! CPCM(Water)
|  3> *xyzfile 0 1 water.xyz
|  4>
|  5>
|  6>
|  7>                          ****END OF INPUT****
 Total Charge           Charge          ....    0
 Multiplicity           Mult            ....    1
 Number of Electrons    NEL             ....   10
Dispersion correction           -0.000209587
FINAL SINGLE POINT ENERGY       -76.267282252848
Dispersion correction            ... done
Dispersion correction           -0.000209591
FINAL SINGLE POINT ENERGY       -76.269012818504
Dispersion correction            ... done
Dispersion correction           -0.000209586
FINAL SINGLE POINT ENERGY       -76.269028449538
Dispersion correction            ... done
Dispersion correction           -0.000209585
FINAL SINGLE POINT ENERGY       -76.269028882889
Dispersion correction            ... done
                    ***********************HURRAY********************

CARTESIAN COORDINATES (ANGSTROEM)
---------------------------------
  O     -5.362726    1.450539    0.016570
  H     -4.403981    1.466499   -0.027072
  H     -5.638572    1.766322   -0.846998

 Multiplicity           Mult            ....    1
 Number of Electrons    NEL             ....   10
 Basis Dimension        Dim             ....   19

ORBITAL ENERGIES
----------------

  NO   OCC          E(Eh)            E(eV)
   0   2.0000     -19.470971      -529.8321
   1   2.0000      -1.098477       -29.8911
   2   2.0000      -0.575021       -15.6471
   3   2.0000      -0.437974       -11.9179
   4   2.0000      -0.358286        -9.7495
   5   0.0000       0.151628         4.1260
   6   0.0000       0.233305         6.3486
   7   0.0000       0.876539        23.8518
   8   0.0000       0.986438        26.8423
   9   0.0000       0.988499        26.8984

MULLIKEN ATOMIC CHARGES
-----------------------
   0 O :   -0.880863
   1 H :    0.440434
   2 H :    0.440429
Sum of atomic charges:   -0.0000000

LOEWDIN ATOMIC CHARGES
----------------------
   0 O :   -0.635196
   1 H :    0.317587
   2 H :    0.317610

  Mayer bond orders larger than 0.100000
B(  0-O ,  1-H ) :   0.7933 B(  0-O ,  2-H ) :   0.7933

Dispersion correction           -0.000209584
FINAL SINGLE POINT ENERGY       -76.269028966686

DIPOLE MOMENT
-------------
                                X             Y             Z
Electronic contribution:     -0.01752      -0.00856       0.02339
Nuclear contribution   :      0.56842       0.27613      -0.75513
                        -----------------------------------------
Total Dipole Moment    :      0.55090       0.26757      -0.73174
                        -----------------------------------------
Magnitude (a.u.)       :      0.95421
Magnitude (Debye)      :      2.42541

Rotational constants in cm-1:    26.912614    14.629059     9.477380
Rotational constants in MHz : 806819.873299 438568.146172 284124.698965

                             ****ORCA TERMINATED NORMALLY****
TOTAL RUN TIME: 0 days 0 hours 0 minutes 6 seconds 614 msec
