                         Program Version 5.0.2 -  RELEASE  -
|  1> ! PBEh-3c Opt
|  2>
|  3> *xyzfile 0 1 Ar-3.xyz
|  4>
|  5>                          ****END OF INPUT****
 Total Charge           Charge          ....    0
 Multiplicity           Mult            ....    1
 Number of Electrons    NEL             ....   42
Dispersion correction           -0.005870829
FINAL SINGLE POINT ENERGY      -231.725271180896
Dispersion correction            ... done
Dispersion correction           -0.005888366
FINAL SINGLE POINT ENERGY      -231.726013581596
Dispersion correction            ... done
Dispersion correction           -0.005890328
FINAL SINGLE POINT ENERGY      -231.726024533927
Dispersion correction            ... done
                    ***********************HURRAY********************

CARTESIAN COORDINATES (ANGSTROEM)
---------------------------------
  C      1.875505  -13.437417   -7.449994
  C      0.808040  -13.362913   -6.566585
  C      2.595876  -12.294183   -7.765545
  C      2.248313  -11.076398   -7.198315
  C      1.180848  -11.001895   -6.314905
  C      0.460477  -12.145128   -5.999354
  H      2.146613  -14.387220   -7.892109
  H      0.246293  -14.254522   -6.320432
  H      3.428441  -12.352248   -8.454467
  H      2.810064  -10.184792   -7.444469
  H      0.909741  -10.052091   -5.872792
  H     -0.372089  -12.087063   -5.310434

 Multiplicity           Mult            ....    1
 Number of Electrons    NEL             ....   42
 Basis Dimension        Dim             ....  102

ORBITAL ENERGIES
----------------

  NO   OCC          E(Eh)            E(eV)
   0   2.0000     -10.447112      -284.2804
   1   2.0000     -10.446886      -284.2742
   2   2.0000     -10.446868      -284.2737
   3   2.0000     -10.446244      -284.2568
   4   2.0000     -10.446225      -284.2562
   5   2.0000     -10.445992      -284.2499
   6   2.0000      -0.955351       -25.9964
   7   2.0000      -0.836972       -22.7752
   8   2.0000      -0.836939       -22.7743
   9   2.0000      -0.679509       -18.4904
  10   2.0000      -0.679492       -18.4899
  11   2.0000      -0.593367       -16.1463
  12   2.0000      -0.524106       -14.2616
  13   2.0000      -0.510312       -13.8863
  14   2.0000      -0.482092       -13.1184
  15   2.0000      -0.482051       -13.1173
  16   2.0000      -0.423095       -11.5130
  17   2.0000      -0.397876       -10.8268
  18   2.0000      -0.397843       -10.8259
  19   2.0000      -0.293374        -7.9831
  20   2.0000      -0.293357        -7.9826
  21   0.0000       0.020611         0.5609
  22   0.0000       0.020618         0.5610
  23   0.0000       0.140130         3.8131
  24   0.0000       0.199480         5.4281
  25   0.0000       0.201413         5.4807

MULLIKEN ATOMIC CHARGES
-----------------------
   0 C :   -0.219432
   1 C :   -0.218735
   2 C :   -0.219541
   3 C :   -0.218734
   4 C :   -0.219432
   5 C :   -0.219540
   6 H :    0.219328
   7 H :    0.219090
   8 H :    0.219289
   9 H :    0.219090
  10 H :    0.219328
  11 H :    0.219289
Sum of atomic charges:   -0.0000000

LOEWDIN ATOMIC CHARGES
----------------------
   0 C :   -0.135492
   1 C :   -0.135499
   2 C :   -0.135500
   3 C :   -0.135500
   4 C :   -0.135491
   5 C :   -0.135499
   6 H :    0.135506
   7 H :    0.135484
   8 H :    0.135501
   9 H :    0.135484
  10 H :    0.135505
  11 H :    0.135501

  Mayer bond orders larger than 0.100000
B(  0-C ,  1-C ) :   1.4275 B(  0-C ,  2-C ) :   1.4273 B(  0-C ,  6-H ) :   0.9201
B(  1-C ,  5-C ) :   1.4275 B(  1-C ,  7-H ) :   0.9202 B(  2-C ,  3-C ) :   1.4275
B(  2-C ,  8-H ) :   0.9201 B(  3-C ,  4-C ) :   1.4275 B(  3-C ,  9-H ) :   0.9202
B(  4-C ,  5-C ) :   1.4273 B(  4-C , 10-H ) :   0.9201 B(  5-C , 11-H ) :   0.9201

Dispersion correction           -0.005890270
FINAL SINGLE POINT ENERGY      -231.726024530920

DIPOLE MOMENT
-------------
                                X             Y             Z
Electronic contribution:     -0.00000       0.00000       0.00001
Nuclear contribution   :      0.00000      -0.00000      -0.00000
                        -----------------------------------------
Total Dipole Moment    :     -0.00000       0.00000       0.00000
                        -----------------------------------------
Magnitude (a.u.)       :      0.00000
Magnitude (Debye)      :      0.00001

Rotational constants in cm-1:     0.191954     0.191926     0.095970
Rotational constants in MHz :  5754.640288  5753.807144  2877.111888

                             ****ORCA TERMINATED NORMALLY****
TOTAL RUN TIME: 0 days 0 hours 2 minutes 20 seconds 678 msec
