                         Program Version 5.0.2 -  RELEASE  -
|  1> !PBE RI pcSseg-2 def2/J NMR
|  2>
|  3> *xyzfile 0 1 I.xyz
|  4>
|  5>
|  6>
|  7>                          ****END OF INPUT****

CARTESIAN COORDINATES (ANGSTROEM)
---------------------------------
  C     -3.026326   -2.689204   -3.520322
  C     -2.562967   -1.379984   -3.549555
  C     -1.952303   -1.535868   -1.243803
  C     -2.322434   -2.868455   -1.220896
  C     -2.956318   -3.403337   -2.331593
  C     -1.965279   -0.820261   -2.431276
  C     -0.857626    0.171410   -2.603322
  C     -1.589695   -3.769214   -0.270316
  C     -3.023797   -3.469418   -4.796553
  C     -1.537486   -3.736538   -5.157035
  C     -0.651323   -4.251511   -4.001366
  C     -0.073552   -3.559715   -0.472954
  C      0.656709   -3.865575   -1.807108
  C      0.454374   -0.656665   -2.604398
  C      0.514440   -1.819263   -3.625947
  H     -2.480931   -0.870476   -4.504812
  H     -1.402729   -1.125230   -0.403601
  H     -3.204608   -4.459435   -2.338637
  H     -0.816386    0.910410   -1.799279
  H     -0.951876    0.721341   -3.543131
  H     -1.865318   -4.813172   -0.439869
  H     -1.815573   -3.551608    0.777675
  H     -3.505815   -2.938203   -5.620148
  H     -1.121157   -2.825872   -5.592487
  H     -1.517679   -4.470890   -5.966339
  H     -0.072264   -5.085850   -4.403861
  H     -1.290864   -4.717268   -3.253794
  H      0.437925   -4.192750    0.259909
  H      0.162740   -2.541006   -0.162518
  H      0.664088   -4.955912   -1.916322
  H      1.697467   -3.615565   -1.575782
  H      0.643602   -1.019035   -1.593220
  H      1.277642    0.028890   -2.823285
  H      1.481924   -1.714783   -4.119686
  H     -0.202303   -1.604228   -4.418378
  C      0.415365   -3.348875   -3.263726
  H     -3.549160   -4.419680   -4.675229
  H      1.340464   -3.714634   -3.714005

 Total Charge           Charge          ....    0
 Multiplicity           Mult            ....    1
 Number of Electrons    NEL             ....  118
 Basis Dimension        Dim             ....  884

ORBITAL ENERGIES
----------------

  NO   OCC          E(Eh)            E(eV)
   0   2.0000      -9.890367      -269.1306
   1   2.0000      -9.882343      -268.9122
   2   2.0000      -9.882168      -268.9075
   3   2.0000      -9.881708      -268.8950
   4   2.0000      -9.881466      -268.8883
   5   2.0000      -9.881212      -268.8815
   6   2.0000      -9.881017      -268.8762
   7   2.0000      -9.880786      -268.8699
   8   2.0000      -9.880157      -268.8527
   9   2.0000      -9.879555      -268.8364
  10   2.0000      -9.879495      -268.8347
  11   2.0000      -9.874959      -268.7113
  12   2.0000      -9.872194      -268.6361
  13   2.0000      -9.868804      -268.5438
  14   2.0000      -9.868345      -268.5313
  15   2.0000      -9.866849      -268.4906
  16   2.0000      -0.793396       -21.5894
  17   2.0000      -0.735409       -20.0115
  18   2.0000      -0.732544       -19.9335
  19   2.0000      -0.732123       -19.9221
  20   2.0000      -0.666884       -18.1468
  21   2.0000      -0.666260       -18.1299
  22   2.0000      -0.661725       -18.0065
  23   2.0000      -0.613525       -16.6949
  24   2.0000      -0.606890       -16.5143
  25   2.0000      -0.569338       -15.4925
  26   2.0000      -0.545916       -14.8551
  27   2.0000      -0.540715       -14.7136
  28   2.0000      -0.504145       -13.7185
  29   2.0000      -0.490889       -13.3578
  30   2.0000      -0.470540       -12.8040
  31   2.0000      -0.448748       -12.2111
  32   2.0000      -0.434886       -11.8339
  33   2.0000      -0.429034       -11.6746
  34   2.0000      -0.408742       -11.1224
  35   2.0000      -0.398619       -10.8470
  36   2.0000      -0.392984       -10.6937
  37   2.0000      -0.383684       -10.4406
  38   2.0000      -0.377039       -10.2597
  39   2.0000      -0.372708       -10.1419
  40   2.0000      -0.363179        -9.8826
  41   2.0000      -0.358697        -9.7606
  42   2.0000      -0.343998        -9.3607
  43   2.0000      -0.337124        -9.1736
  44   2.0000      -0.335086        -9.1181
  45   2.0000      -0.317570        -8.6415
  46   2.0000      -0.315941        -8.5972
  47   2.0000      -0.306552        -8.3417
  48   2.0000      -0.298963        -8.1352
  49   2.0000      -0.298386        -8.1195
  50   2.0000      -0.294031        -8.0010
  51   2.0000      -0.287557        -7.8248
  52   2.0000      -0.280451        -7.6315
  53   2.0000      -0.278166        -7.5693
  54   2.0000      -0.257692        -7.0122
  55   2.0000      -0.256444        -6.9782
  56   2.0000      -0.245139        -6.6706
  57   2.0000      -0.202391        -5.5073
  58   2.0000      -0.200755        -5.4628
  59   0.0000      -0.042175        -1.1476
  60   0.0000      -0.035736        -0.9724
  61   0.0000      -0.010913        -0.2969
  62   0.0000       0.008130         0.2212
  63   0.0000       0.008750         0.2381

MULLIKEN ATOMIC CHARGES
-----------------------
   0 C :    0.173866
   1 C :   -0.278643
   2 C :   -0.281082
   3 C :    0.195000
   4 C :   -0.217016
   5 C :    0.170387
   6 C :   -0.009561
   7 C :   -0.019947
   8 C :    0.001536
   9 C :   -0.036034
  10 C :   -0.071879
  11 C :    0.003471
  12 C :   -0.087129
  13 C :   -0.022028
  14 C :   -0.060803
  15 H :   -0.009549
  16 H :   -0.009870
  17 H :   -0.023348
  18 H :    0.047177
  19 H :    0.045170
  20 H :    0.031704
  21 H :    0.048064
  22 H :    0.046196
  23 H :    0.039711
  24 H :    0.023903
  25 H :    0.022588
  26 H :    0.026377
  27 H :    0.014629
  28 H :    0.022302
  29 H :    0.024883
  30 H :    0.026068
  31 H :    0.029814
  32 H :    0.014498
  33 H :    0.016327
  34 H :    0.005888
  35 C :    0.049622
  36 H :    0.046903
  37 H :    0.000805
Sum of atomic charges:   -0.0000000

LOEWDIN ATOMIC CHARGES
----------------------
   0 C :   -0.055774
   1 C :   -0.034914
   2 C :   -0.024617
   3 C :   -0.052992
   4 C :   -0.033619
   5 C :   -0.053704
   6 C :   -0.040292
   7 C :   -0.038341
   8 C :   -0.040265
   9 C :   -0.034256
  10 C :   -0.040541
  11 C :   -0.047887
  12 C :   -0.050725
  13 C :   -0.032763
  14 C :   -0.037040
  15 H :    0.032964
  16 H :    0.035464
  17 H :    0.029089
  18 H :    0.035454
  19 H :    0.034589
  20 H :    0.034018
  21 H :    0.038546
  22 H :    0.035074
  23 H :    0.023726
  24 H :    0.026297
  25 H :    0.027172
  26 H :    0.025867
  27 H :    0.031160
  28 H :    0.019900
  29 H :    0.037293
  30 H :    0.036386
  31 H :    0.026111
  32 H :    0.025274
  33 H :    0.028547
  34 H :    0.025475
  35 C :   -0.055733
  36 H :    0.035470
  37 H :    0.029586

  Mayer bond orders larger than 0.100000
B(  0-C ,  1-C ) :   1.3763 B(  0-C ,  4-C ) :   1.3858 B(  0-C ,  8-C ) :   0.9703
B(  1-C ,  5-C ) :   1.3681 B(  1-C , 15-H ) :   1.0586 B(  2-C ,  3-C ) :   1.3615
B(  2-C ,  5-C ) :   1.3733 B(  2-C , 16-H ) :   1.0609 B(  3-C ,  4-C ) :   1.3587
B(  3-C ,  7-C ) :   0.9706 B(  4-C , 17-H ) :   1.0542 B(  5-C ,  6-C ) :   0.9673
B(  6-C , 13-C ) :   0.9280 B(  6-C , 18-H ) :   1.0059 B(  6-C , 19-H ) :   0.9935
B(  7-C , 11-C ) :   0.9432 B(  7-C , 20-H ) :   0.9994 B(  7-C , 21-H ) :   0.9889
B(  8-C ,  9-C ) :   0.9215 B(  8-C , 22-H ) :   1.0082 B(  8-C , 36-H ) :   0.9921
B(  9-C , 10-C ) :   0.9589 B(  9-C , 23-H ) :   1.0049 B(  9-C , 24-H ) :   0.9929
B( 10-C , 25-H ) :   0.9965 B( 10-C , 26-H ) :   1.0161 B( 10-C , 35-C ) :   0.9446
B( 11-C , 12-C ) :   0.9649 B( 11-C , 27-H ) :   0.9963 B( 11-C , 28-H ) :   1.0009
B( 12-C , 29-H ) :   0.9991 B( 12-C , 30-H ) :   1.0041 B( 12-C , 35-C ) :   0.9578
B( 13-C , 14-C ) :   0.9664 B( 13-C , 31-H ) :   1.0088 B( 13-C , 32-H ) :   0.9930
B( 14-C , 33-H ) :   1.0003 B( 14-C , 34-H ) :   0.9995 B( 14-C , 35-C ) :   0.9365
B( 35-C , 37-H ) :   1.0283

FINAL SINGLE POINT ENERGY      -622.261075516551

DIPOLE MOMENT
-------------
                                X             Y             Z
Electronic contribution:     -9.48483       3.62126       2.24590
Nuclear contribution   :     10.14954      -3.86624      -2.38799
                        -----------------------------------------
Total Dipole Moment    :      0.66471      -0.24498      -0.14209
                        -----------------------------------------
Magnitude (a.u.)       :      0.72252
Magnitude (Debye)      :      1.83650

Rotational constants in cm-1:     0.022101     0.019722     0.018587
Rotational constants in MHz :   662.580615   591.252295   557.225578

CHEMICAL SHIELDING SUMMARY (ppm)
--------------------------------

  Nucleus  Element    Isotropic     Anisotropy
  -------  -------  ------------   ------------
      0       C           28.307        196.504
      1       C           45.378        121.509
      2       C           42.306        142.786
      3       C           22.176        205.398
      4       C           41.917        100.874
      5       C           24.101        205.015
      6       C          135.556         17.890
      7       C          137.906         21.247
      8       C          138.048         22.547
      9       C          150.198         18.210
     10       C          144.321         35.192
     11       C          137.512         26.272
     12       C          140.376         20.010
     13       C          144.265         17.940
     14       C          154.776         25.598
     15       H           24.555          5.560
     16       H           24.024          7.060
     17       H           24.503          5.473
     18       H           28.295          8.237
     19       H           29.395          8.109
     20       H           29.114          6.000
     21       H           28.166          8.308
     22       H           28.391          8.229
     23       H           29.857          5.320
     24       H           29.732         11.635
     25       H           29.791          9.921
     26       H           30.287          2.965
     27       H           29.396          9.690
     28       H           28.988          4.259
     29       H           30.060          8.260
     30       H           29.509          9.068
     31       H           29.788          4.510
     32       H           29.678         10.983
     33       H           29.894         11.267
     34       H           30.435          2.816
     35       C          142.716         16.660
     36       H           29.270          8.734
     37       H           29.355          9.285

                             ****ORCA TERMINATED NORMALLY****
TOTAL RUN TIME: 0 days 0 hours 5 minutes 45 seconds 551 msec
