                         Program Version 5.0.2 -  RELEASE  -
|  1> ! RHF def2-TZVP TightSCF Conv
|  2>
|  3> %casscf
|  4>   nel 5
|  5>   norb 5
|  6>   switchstep nr
|  7> end
|  8>
|  9> * xyz 0 2
| 10> F 0 0 0
| 11> **                         ****END OF INPUT****

CARTESIAN COORDINATES (ANGSTROEM)
---------------------------------
  F      0.000000    0.000000    0.000000

 Total Charge           Charge          ....    0
 Multiplicity           Mult            ....    2
 Number of Electrons    NEL             ....    9
 Basis Dimension        Dim             ....   31

ORBITAL ENERGIES
----------------

  NO   OCC          E(Eh)            E(eV)
   0   2.0000     -26.389528      -718.0956
   1   2.0000      -1.485320       -40.4176
   2   1.9898      -0.707413       -19.2497
   3   1.9894      -0.800836       -21.7918
   4   1.0000      -0.365365        -9.9421
   5   0.0106       1.644617        44.7523
   6   0.0102       1.634443        44.4754
   7   0.0000       0.639301        17.3963
   8   0.0000       0.678032        18.4502
   9   0.0000       2.203268        59.9540
  10   0.0000       2.207603        60.0719
  11   0.0000       2.207621        60.0724

MULLIKEN ATOMIC CHARGES AND SPIN DENSITIES
------------------------------------------
   0 F :   -0.000000    1.000000
Sum of atomic charges       :   -0.0000000

LOEWDIN ATOMIC CHARGES AND SPIN DENSITIES
-----------------------------------------
   0 F :   -0.000000    1.000000

FINAL SINGLE POINT ENERGY       -99.450164796398

DIPOLE MOMENT
-------------
                                X             Y             Z
Electronic contribution:     -0.00033      -0.00051      -0.01197
Nuclear contribution   :      0.00000       0.00000       0.00000
                        -----------------------------------------
Total Dipole Moment    :     -0.00033      -0.00051      -0.01197
                        -----------------------------------------
Magnitude (a.u.)       :      0.01199
Magnitude (Debye)      :      0.03047

Rotational constants in cm-1:     0.000000     0.000000     0.000000
Rotational constants in MHz :     0.000000     0.000000     0.000000

                             ****ORCA TERMINATED NORMALLY****
TOTAL RUN TIME: 0 days 0 hours 4 minutes 28 seconds 145 msec
