                         Program Version 5.0.2 -  RELEASE  -
|  1> !PBE RI pcSseg-2 def2/J NMR
|  2>
|  3> *xyzfile -1 1 OPT_Ar-2.xyz
|  4>
|  5>
|  6>                          ****END OF INPUT****

CARTESIAN COORDINATES (ANGSTROEM)
---------------------------------
  C     -5.007473   -9.079330   -7.312433
  C     -5.019305   -8.071981   -6.332127
  C     -3.952903   -7.195659   -6.597083
  C     -3.281936   -7.661179   -7.741293
  C     -3.933405   -8.825875   -8.182794
  H     -3.655777   -9.424227   -9.043745
  H     -2.413731   -7.202481   -8.201633
  H     -3.692318   -6.314824   -6.020416
  H     -5.727502   -7.986042   -5.515111
  H     -5.704199   -9.907484   -7.384244

 Total Charge           Charge          ....   -1
 Multiplicity           Mult            ....    1
 Number of Electrons    NEL             ....   36
 Basis Dimension        Dim             ....  250

ORBITAL ENERGIES
----------------

  NO   OCC          E(Eh)            E(eV)
   0   2.0000      -9.651242      -262.6236
   1   2.0000      -9.650992      -262.6168
   2   2.0000      -9.650981      -262.6165
   3   2.0000      -9.650595      -262.6060
   4   2.0000      -9.650555      -262.6050
   5   2.0000      -0.558373       -15.1941
   6   2.0000      -0.404999       -11.0206
   7   2.0000      -0.404975       -11.0199
   8   2.0000      -0.263247        -7.1633
   9   2.0000      -0.263227        -7.1628
  10   2.0000      -0.254407        -6.9228
  11   2.0000      -0.124325        -3.3831
  12   2.0000      -0.124273        -3.3816
  13   2.0000      -0.108476        -2.9518
  14   2.0000      -0.108391        -2.9495
  15   2.0000      -0.102944        -2.8012
  16   2.0000       0.035521         0.9666
  17   2.0000       0.035558         0.9676
  18   0.0000       0.160951         4.3797
  19   0.0000       0.179935         4.8963
  20   0.0000       0.179950         4.8967
  21   0.0000       0.203556         5.5390
  22   0.0000       0.203579         5.5397

MULLIKEN ATOMIC CHARGES
-----------------------
   0 C :   -0.130475
   1 C :   -0.130682
   2 C :   -0.130556
   3 C :   -0.130715
   4 C :   -0.130671
   5 H :   -0.069294
   6 H :   -0.069486
   7 H :   -0.069262
   8 H :   -0.069446
   9 H :   -0.069413
Sum of atomic charges:   -1.0000000

LOEWDIN ATOMIC CHARGES
----------------------
   0 C :   -0.179531
   1 C :   -0.179543
   2 C :   -0.179522
   3 C :   -0.179522
   4 C :   -0.179537
   5 H :   -0.020464
   6 H :   -0.020517
   7 H :   -0.020471
   8 H :   -0.020442
   9 H :   -0.020451

  Mayer bond orders larger than 0.100000
B(  0-C ,  1-C ) :   1.4172 B(  0-C ,  4-C ) :   1.4176 B(  0-C ,  9-H ) :   1.0241
B(  1-C ,  2-C ) :   1.4176 B(  1-C ,  8-H ) :   1.0242 B(  2-C ,  3-C ) :   1.4173
B(  2-C ,  7-H ) :   1.0240 B(  3-C ,  4-C ) :   1.4174 B(  3-C ,  6-H ) :   1.0242
B(  4-C ,  5-H ) :   1.0241

FINAL SINGLE POINT ENERGY      -193.342106582819

DIPOLE MOMENT
-------------
                                X             Y             Z
Electronic contribution:     -0.00089       0.00048      -0.00014
Nuclear contribution   :      0.00129      -0.00089       0.00050
                        -----------------------------------------
Total Dipole Moment    :      0.00040      -0.00042       0.00036
                        -----------------------------------------
Magnitude (a.u.)       :      0.00068
Magnitude (Debye)      :      0.00173

Rotational constants in cm-1:     0.300862     0.300856     0.150430
Rotational constants in MHz :  9019.625868  9019.434391  4509.765510

CHEMICAL SHIELDING SUMMARY (ppm)
--------------------------------

  Nucleus  Element    Isotropic     Anisotropy
  -------  -------  ------------   ------------
      0       C           77.342        111.931
      1       C           77.376        111.923
      2       C           77.337        111.988
      3       C           77.328        111.970
      4       C           77.344        111.989
      5       H           25.490          1.358
      6       H           25.492          1.350
      7       H           25.491          1.355
      8       H           25.491          1.361
      9       H           25.493          1.353

                             ****ORCA TERMINATED NORMALLY****
TOTAL RUN TIME: 0 days 0 hours 0 minutes 23 seconds 14 msec
