                         Program Version 5.0.2 -  RELEASE  -
|  1> !PBE RI pcSseg-2 def2/J NMR
|  2>
|  3> *xyzfile 0 1 Acetone.xyz
|  4>
|  5>
|  6>
|  7>                          ****END OF INPUT****

CARTESIAN COORDINATES (ANGSTROEM)
---------------------------------
  C     -7.105751    1.388171   -0.000001
  C     -5.857263    2.235131   -0.000010
  C     -4.518438    1.538758   -0.000000
  O     -5.927673    3.444418   -0.000003
  H     -6.900425    0.320958    0.000005
  H     -7.711200    1.626790   -0.876247
  H     -7.711196    1.626801    0.876246
  H     -4.598928    0.455045   -0.000010
  H     -3.945359    1.846381    0.876389
  H     -3.945338    1.846397   -0.876370

 Total Charge           Charge          ....    0
 Multiplicity           Mult            ....    1
 Number of Electrons    NEL             ....   32
 Basis Dimension        Dim             ....  228

ORBITAL ENERGIES
----------------

  NO   OCC          E(Eh)            E(eV)
   0   2.0000     -18.733423      -509.7624
   1   2.0000      -9.972186      -271.3570
   2   2.0000      -9.886690      -269.0305
   3   2.0000      -9.886664      -269.0298
   4   2.0000      -0.955556       -26.0020
   5   2.0000      -0.700023       -19.0486
   6   2.0000      -0.649455       -17.6726
   7   2.0000      -0.482261       -13.1230
   8   2.0000      -0.416749       -11.3403
   9   2.0000      -0.413877       -11.2622
  10   2.0000      -0.407736       -11.0951
  11   2.0000      -0.366882        -9.9834
  12   2.0000      -0.353422        -9.6171
  13   2.0000      -0.335984        -9.1426
  14   2.0000      -0.308943        -8.4068
  15   2.0000      -0.208220        -5.6659
  16   0.0000      -0.065414        -1.7800
  17   0.0000      -0.006170        -0.1679
  18   0.0000       0.032506         0.8845
  19   0.0000       0.039990         1.0882
  20   0.0000       0.066229         1.8022

MULLIKEN ATOMIC CHARGES
-----------------------
   0 C :   -0.075031
   1 C :    0.212248
   2 C :   -0.074856
   3 O :   -0.349480
   4 H :    0.024518
   5 H :    0.059579
   6 H :    0.059579
   7 H :    0.024497
   8 H :    0.059474
   9 H :    0.059473
Sum of atomic charges:    0.0000000

LOEWDIN ATOMIC CHARGES
----------------------
   0 C :   -0.061036
   1 C :   -0.115348
   2 C :   -0.060908
   3 O :   -0.015434
   4 H :    0.028378
   5 H :    0.049043
   6 H :    0.049044
   7 H :    0.028320
   8 H :    0.048971
   9 H :    0.048971

  Mayer bond orders larger than 0.100000
B(  0-C ,  1-C ) :   0.9476 B(  0-C ,  4-H ) :   0.9877 B(  0-C ,  5-H ) :   0.9804
B(  0-C ,  6-H ) :   0.9804 B(  1-C ,  2-C ) :   0.9473 B(  1-C ,  3-O ) :   2.0404
B(  2-C ,  7-H ) :   0.9878 B(  2-C ,  8-H ) :   0.9805 B(  2-C ,  9-H ) :   0.9805

FINAL SINGLE POINT ENERGY      -192.989047069356

DIPOLE MOMENT
-------------
                                X             Y             Z
Electronic contribution:     -0.21799       3.74622      -0.00003
Nuclear contribution   :      0.28121      -4.84042       0.00003
                        -----------------------------------------
Total Dipole Moment    :      0.06323      -1.09420       0.00000
                        -----------------------------------------
Magnitude (a.u.)       :      1.09602
Magnitude (Debye)      :      2.78587

Rotational constants in cm-1:     0.348199     0.278838     0.164180
Rotational constants in MHz : 10438.737035  8359.350471  4921.979285

CHEMICAL SHIELDING SUMMARY (ppm)
--------------------------------

  Nucleus  Element    Isotropic     Anisotropy
  -------  -------  ------------   ------------
      0       C          150.363         53.616
      1       C          -37.325       -115.941
      2       C          150.310         53.665
      3       O         -349.105       -906.701
      4       H           29.094          3.465
      5       H           29.454          5.858
      6       H           29.454          5.858
      7       H           29.094          3.460
      8       H           29.456          5.851
      9       H           29.456          5.851

                             ****ORCA TERMINATED NORMALLY****
TOTAL RUN TIME: 0 days 0 hours 0 minutes 35 seconds 990 msec
