                         Program Version 5.0.2 -  RELEASE  -
|  1> ! PBEh-3c Opt
|  2>
|  3> *xyzfile 0 1 I.xyz
|  4>
|  5>
|  6>
|  7>                          ****END OF INPUT****
 Total Charge           Charge          ....    0
 Multiplicity           Mult            ....    1
 Number of Electrons    NEL             ....  118
Dispersion correction           -0.029939218
FINAL SINGLE POINT ENERGY      -621.489413101892
Dispersion correction            ... done
Dispersion correction           -0.030122917
FINAL SINGLE POINT ENERGY      -621.505994096432
Dispersion correction            ... done
Dispersion correction           -0.030132745
FINAL SINGLE POINT ENERGY      -621.512623056467
Dispersion correction            ... done
FINAL SINGLE POINT ENERGY      -621.515890897648
FINAL SINGLE POINT ENERGY      -621.517681077919
FINAL SINGLE POINT ENERGY      -621.518952365087
FINAL SINGLE POINT ENERGY      -621.520153551916
FINAL SINGLE POINT ENERGY      -621.521363063179
FINAL SINGLE POINT ENERGY      -621.522544752412
FINAL SINGLE POINT ENERGY      -621.523682237893
FINAL SINGLE POINT ENERGY      -621.526687947081
FINAL SINGLE POINT ENERGY      -621.527449005699
FINAL SINGLE POINT ENERGY      -621.528043116565
FINAL SINGLE POINT ENERGY      -621.528414630196
FINAL SINGLE POINT ENERGY      -621.528537183406
FINAL SINGLE POINT ENERGY      -621.528553814122
FINAL SINGLE POINT ENERGY      -621.528569756678
Dispersion correction            ... done
Dispersion correction           -0.030900209
FINAL SINGLE POINT ENERGY      -621.528577041555
Dispersion correction            ... done
Dispersion correction           -0.030895921
FINAL SINGLE POINT ENERGY      -621.528579589830
Dispersion correction            ... done
                    ***********************HURRAY********************

CARTESIAN COORDINATES (ANGSTROEM)
---------------------------------
  C     -3.026326   -2.689204   -3.520322
  C     -2.562967   -1.379984   -3.549555
  C     -1.952303   -1.535868   -1.243803
  C     -2.322434   -2.868455   -1.220896
  C     -2.956318   -3.403337   -2.331593
  C     -1.965279   -0.820261   -2.431276
  C     -0.857626    0.171410   -2.603322
  C     -1.589695   -3.769214   -0.270316
  C     -3.023797   -3.469418   -4.796553
  C     -1.537486   -3.736538   -5.157035
  C     -0.651323   -4.251511   -4.001366
  C     -0.073552   -3.559715   -0.472954
  C      0.656709   -3.865575   -1.807108
  C      0.454374   -0.656665   -2.604398
  C      0.514440   -1.819263   -3.625947
  H     -2.480931   -0.870476   -4.504812
  H     -1.402729   -1.125230   -0.403601
  H     -3.204608   -4.459435   -2.338637
  H     -0.816386    0.910410   -1.799279
  H     -0.951876    0.721341   -3.543131
  H     -1.865318   -4.813172   -0.439869
  H     -1.815573   -3.551608    0.777675
  H     -3.505815   -2.938203   -5.620148
  H     -1.121157   -2.825872   -5.592487
  H     -1.517679   -4.470890   -5.966339
  H     -0.072264   -5.085850   -4.403861
  H     -1.290864   -4.717268   -3.253794
  H      0.437925   -4.192750    0.259909
  H      0.162740   -2.541006   -0.162518
  H      0.664088   -4.955912   -1.916322
  H      1.697467   -3.615565   -1.575782
  H      0.643602   -1.019035   -1.593220
  H      1.277642    0.028890   -2.823285
  H      1.481924   -1.714783   -4.119686
  H     -0.202303   -1.604228   -4.418378
  C      0.415365   -3.348875   -3.263726
  H     -3.549160   -4.419680   -4.675229
  H      1.340464   -3.714634   -3.714005

 Multiplicity           Mult            ....    1
 Number of Electrons    NEL             ....  118
 Basis Dimension        Dim             ....  284

ORBITAL ENERGIES
----------------

  NO   OCC          E(Eh)            E(eV)
   0   2.0000     -10.445923      -284.2480
   1   2.0000     -10.443635      -284.1858
   2   2.0000     -10.442967      -284.1676
   3   2.0000     -10.442779      -284.1625
   4   2.0000     -10.438419      -284.0438
   5   2.0000     -10.437255      -284.0122
   6   2.0000     -10.437165      -284.0097
   7   2.0000     -10.436468      -283.9907
   8   2.0000     -10.435782      -283.9721
   9   2.0000     -10.434806      -283.9455
  10   2.0000     -10.434802      -283.9454
  11   2.0000     -10.429762      -283.8083
  12   2.0000     -10.429411      -283.7987
  13   2.0000     -10.428881      -283.7843
  14   2.0000     -10.427379      -283.7434
  15   2.0000     -10.427316      -283.7417
  16   2.0000      -0.968238       -26.3471
  17   2.0000      -0.900682       -24.5088
  18   2.0000      -0.897114       -24.4117
  19   2.0000      -0.895911       -24.3790
  20   2.0000      -0.822243       -22.3744
  21   2.0000      -0.820552       -22.3283
  22   2.0000      -0.816913       -22.2293
  23   2.0000      -0.760085       -20.6830
  24   2.0000      -0.752941       -20.4886
  25   2.0000      -0.707703       -19.2576
  26   2.0000      -0.680354       -18.5134
  27   2.0000      -0.674375       -18.3507
  28   2.0000      -0.631608       -17.1869
  29   2.0000      -0.616579       -16.7780
  30   2.0000      -0.591842       -16.1048
  31   2.0000      -0.562298       -15.3009
  32   2.0000      -0.546252       -14.8643
  33   2.0000      -0.538125       -14.6431
  34   2.0000      -0.515509       -14.0277
  35   2.0000      -0.502562       -13.6754
  36   2.0000      -0.495579       -13.4854
  37   2.0000      -0.486821       -13.2471
  38   2.0000      -0.478821       -13.0294
  39   2.0000      -0.472620       -12.8606
  40   2.0000      -0.463838       -12.6217
  41   2.0000      -0.457002       -12.4357
  42   2.0000      -0.442844       -12.0504
  43   2.0000      -0.435152       -11.8411
  44   2.0000      -0.431089       -11.7305
  45   2.0000      -0.409027       -11.1302
  46   2.0000      -0.407947       -11.1008
  47   2.0000      -0.397097       -10.8056
  48   2.0000      -0.389635       -10.6025
  49   2.0000      -0.387185       -10.5358
  50   2.0000      -0.382970       -10.4212
  51   2.0000      -0.373918       -10.1748
  52   2.0000      -0.368527       -10.0281
  53   2.0000      -0.365896        -9.9565
  54   2.0000      -0.341363        -9.2890
  55   2.0000      -0.339299        -9.2328
  56   2.0000      -0.327834        -8.9208
  57   2.0000      -0.261814        -7.1243
  58   2.0000      -0.260029        -7.0758
  59   0.0000       0.018377         0.5001
  60   0.0000       0.025550         0.6952
  61   0.0000       0.115292         3.1373
  62   0.0000       0.124984         3.4010
  63   0.0000       0.137958         3.7540

MULLIKEN ATOMIC CHARGES
-----------------------
   0 C :    0.150590
   1 C :   -0.322802
   2 C :   -0.306715
   3 C :    0.162602
   4 C :   -0.338314
   5 C :    0.146628
   6 C :   -0.518178
   7 C :   -0.506402
   8 C :   -0.515209
   9 C :   -0.426478
  10 C :   -0.444865
  11 C :   -0.424894
  12 C :   -0.412651
  13 C :   -0.419800
  14 C :   -0.442870
  15 H :    0.203202
  16 H :    0.208948
  17 H :    0.206390
  18 H :    0.228567
  19 H :    0.221540
  20 H :    0.217658
  21 H :    0.230727
  22 H :    0.229077
  23 H :    0.217729
  24 H :    0.223709
  25 H :    0.221466
  26 H :    0.228702
  27 H :    0.219206
  28 H :    0.207854
  29 H :    0.210787
  30 H :    0.211763
  31 H :    0.221946
  32 H :    0.220233
  33 H :    0.220497
  34 H :    0.224621
  35 C :   -0.194821
  36 H :    0.222977
  37 H :    0.216580
Sum of atomic charges:   -0.0000000

LOEWDIN ATOMIC CHARGES
----------------------
   0 C :   -0.040340
   1 C :   -0.148191
   2 C :   -0.133192
   3 C :   -0.038985
   4 C :   -0.148845
   5 C :   -0.038969
   6 C :   -0.224272
   7 C :   -0.224930
   8 C :   -0.223563
   9 C :   -0.233848
  10 C :   -0.242472
  11 C :   -0.235652
  12 C :   -0.235086
  13 C :   -0.230885
  14 C :   -0.241042
  15 H :    0.128225
  16 H :    0.128366
  17 H :    0.127905
  18 H :    0.131095
  19 H :    0.125968
  20 H :    0.126132
  21 H :    0.134087
  22 H :    0.130949
  23 H :    0.121566
  24 H :    0.125101
  25 H :    0.123946
  26 H :    0.129082
  27 H :    0.126196
  28 H :    0.117107
  29 H :    0.125410
  30 H :    0.126488
  31 H :    0.122809
  32 H :    0.122452
  33 H :    0.126148
  34 H :    0.127954
  35 C :   -0.144081
  36 H :    0.127158
  37 H :    0.130207

  Mayer bond orders larger than 0.100000
B(  0-C ,  1-C ) :   1.3786 B(  0-C ,  4-C ) :   1.4030 B(  0-C ,  8-C ) :   0.9746
B(  1-C ,  5-C ) :   1.4074 B(  1-C , 15-H ) :   0.9193 B(  2-C ,  3-C ) :   1.3910
B(  2-C ,  5-C ) :   1.3790 B(  2-C , 16-H ) :   0.9180 B(  3-C ,  4-C ) :   1.3975
B(  3-C ,  7-C ) :   0.9596 B(  4-C , 17-H ) :   0.9136 B(  5-C ,  6-C ) :   0.9712
B(  6-C , 13-C ) :   0.9740 B(  6-C , 18-H ) :   0.9155 B(  6-C , 19-H ) :   0.9208
B(  7-C , 11-C ) :   0.9795 B(  7-C , 20-H ) :   0.9232 B(  7-C , 21-H ) :   0.9120
B(  8-C ,  9-C ) :   0.9669 B(  8-C , 22-H ) :   0.9186 B(  8-C , 36-H ) :   0.9206
B(  9-C , 10-C ) :   0.9618 B(  9-C , 23-H ) :   0.9095 B(  9-C , 24-H ) :   0.9240
B( 10-C , 25-H ) :   0.9291 B( 10-C , 26-H ) :   0.9067 B( 10-C , 35-C ) :   0.9443
B( 11-C , 12-C ) :   0.9964 B( 11-C , 27-H ) :   0.9125 B( 11-C , 28-H ) :   0.9068
B( 12-C , 29-H ) :   0.9146 B( 12-C , 30-H ) :   0.9175 B( 12-C , 35-C ) :   0.9693
B( 13-C , 14-C ) :   0.9563 B( 13-C , 31-H ) :   0.9094 B( 13-C , 32-H ) :   0.9247
B( 14-C , 33-H ) :   0.9335 B( 14-C , 34-H ) :   0.9012 B( 14-C , 35-C ) :   0.9584
B( 35-C , 37-H ) :   0.9261

Dispersion correction           -0.030896244
FINAL SINGLE POINT ENERGY      -621.528579856873

DIPOLE MOMENT
-------------
                                X             Y             Z
Electronic contribution:     -9.38756       3.57986       2.20656
Nuclear contribution   :     10.14954      -3.86624      -2.38799
                        -----------------------------------------
Total Dipole Moment    :      0.76198      -0.28638      -0.18142
                        -----------------------------------------
Magnitude (a.u.)       :      0.83399
Magnitude (Debye)      :      2.11983

Rotational constants in cm-1:     0.022101     0.019722     0.018587
Rotational constants in MHz :   662.580615   591.252295   557.225578

                             ****ORCA TERMINATED NORMALLY****
TOTAL RUN TIME: 0 days 1 hours 21 minutes 47 seconds 795 msec
