                         Program Version 5.0.2 -  RELEASE  -
|  1> ! PBEh-3c Opt
|  2>
|  3> *xyzfile 0 1 C.xyz
|  4>
|  5>                          ****END OF INPUT****
 Total Charge           Charge          ....    0
 Multiplicity           Mult            ....    1
 Number of Electrons    NEL             ....   32
Dispersion correction           -0.004309480
FINAL SINGLE POINT ENERGY      -156.860472434866
Dispersion correction            ... done
Dispersion correction           -0.004297495
FINAL SINGLE POINT ENERGY      -156.863050554637
Dispersion correction            ... done
Dispersion correction           -0.004290634
FINAL SINGLE POINT ENERGY      -156.863398238693
Dispersion correction            ... done
FINAL SINGLE POINT ENERGY      -156.863507695531
FINAL SINGLE POINT ENERGY      -156.863513393071
FINAL SINGLE POINT ENERGY      -156.863515998509
FINAL SINGLE POINT ENERGY      -156.863525272445
FINAL SINGLE POINT ENERGY      -156.863568479236
FINAL SINGLE POINT ENERGY      -156.863574084512
FINAL SINGLE POINT ENERGY      -156.863582275538
FINAL SINGLE POINT ENERGY      -156.863678652480
FINAL SINGLE POINT ENERGY      -156.863779008365
FINAL SINGLE POINT ENERGY      -156.864164076156
FINAL SINGLE POINT ENERGY      -156.865127391106
FINAL SINGLE POINT ENERGY      -156.866136639116
FINAL SINGLE POINT ENERGY      -156.866900077256
FINAL SINGLE POINT ENERGY      -156.866996711570
Dispersion correction            ... done
Dispersion correction           -0.004321250
FINAL SINGLE POINT ENERGY      -156.867017769069
Dispersion correction            ... done
Dispersion correction           -0.004321486
FINAL SINGLE POINT ENERGY      -156.867037307979
Dispersion correction            ... done
                    ***********************HURRAY********************

CARTESIAN COORDINATES (ANGSTROEM)
---------------------------------
  C     -4.573548   -3.191708   -0.073093
  C     -3.386415   -2.602693   -0.021706
  C     -3.060005   -1.389724    0.789477
  C     -2.618548   -0.214800   -0.079980
  H     -4.749364   -4.062597   -0.689772
  H     -5.416124   -2.827079    0.502095
  H     -2.574778   -3.006906   -0.621450
  H     -2.259632   -1.631402    1.495866
  H     -3.926160   -1.103976    1.390686
  H     -1.737455   -0.467491   -0.671550
  H     -2.366944    0.653271    0.529539
  H     -3.408087    0.077145   -0.772022

 Multiplicity           Mult            ....    1
 Number of Electrons    NEL             ....   32
 Basis Dimension        Dim             ....   76

ORBITAL ENERGIES
----------------

  NO   OCC          E(Eh)            E(eV)
   0   2.0000     -10.442107      -284.1442
   1   2.0000     -10.437121      -284.0085
   2   2.0000     -10.428646      -283.7779
   3   2.0000     -10.425407      -283.6897
   4   2.0000      -0.892110       -24.2755
   5   2.0000      -0.813290       -22.1308
   6   2.0000      -0.702612       -19.1190
   7   2.0000      -0.621042       -16.8994
   8   2.0000      -0.531433       -14.4610
   9   2.0000      -0.500380       -13.6160
  10   2.0000      -0.480700       -13.0805
  11   2.0000      -0.435061       -11.8386
  12   2.0000      -0.425502       -11.5785
  13   2.0000      -0.390924       -10.6376
  14   2.0000      -0.382728       -10.4146
  15   2.0000      -0.298578        -8.1247
  16   0.0000       0.049795         1.3550
  17   0.0000       0.156406         4.2560
  18   0.0000       0.182245         4.9591
  19   0.0000       0.186081         5.0635
  20   0.0000       0.209733         5.7071

MULLIKEN ATOMIC CHARGES
-----------------------
   0 C :   -0.487398
   1 C :   -0.123534
   2 C :   -0.473191
   3 C :   -0.639390
   4 H :    0.212991
   5 H :    0.207075
   6 H :    0.209634
   7 H :    0.221278
   8 H :    0.218268
   9 H :    0.211159
  10 H :    0.219693
  11 H :    0.223414
Sum of atomic charges:    0.0000000

LOEWDIN ATOMIC CHARGES
----------------------
   0 C :   -0.278474
   1 C :   -0.139302
   2 C :   -0.244576
   3 C :   -0.359578
   4 H :    0.130586
   5 H :    0.126682
   6 H :    0.126773
   7 H :    0.130170
   8 H :    0.126977
   9 H :    0.124593
  10 H :    0.126873
  11 H :    0.129275

  Mayer bond orders larger than 0.100000
B(  0-C ,  1-C ) :   1.9410 B(  0-C ,  4-H ) :   0.9303 B(  0-C ,  5-H ) :   0.9308
B(  1-C ,  2-C ) :   0.9956 B(  1-C ,  6-H ) :   0.9179 B(  2-C ,  3-C ) :   0.9778
B(  2-C ,  7-H ) :   0.9119 B(  2-C ,  8-H ) :   0.9230 B(  3-C ,  9-H ) :   0.9296
B(  3-C , 10-H ) :   0.9290 B(  3-C , 11-H ) :   0.9264

Dispersion correction           -0.004322164
FINAL SINGLE POINT ENERGY      -156.867038853506

DIPOLE MOMENT
-------------
                                X             Y             Z
Electronic contribution:     -0.58155      -1.84574       0.07934
Nuclear contribution   :      0.67359       1.95116      -0.05302
                        -----------------------------------------
Total Dipole Moment    :      0.09204       0.10542       0.02632
                        -----------------------------------------
Magnitude (a.u.)       :      0.14240
Magnitude (Debye)      :      0.36196

Rotational constants in cm-1:     0.753439     0.139795     0.136675
Rotational constants in MHz : 22587.542673  4190.945826  4097.418867

                             ****ORCA TERMINATED NORMALLY****
TOTAL RUN TIME: 0 days 0 hours 6 minutes 31 seconds 347 msec
