                         Program Version 5.0.2 -  RELEASE  -
|  1> ! PBEh-3c Opt
|  2> ! CPCM(Water)
|  3> *xyzfile 0 1 TMS.xyz
|  4>
|  5>
|  6>
|  7>
|  8>                          ****END OF INPUT****
 Total Charge           Charge          ....    0
 Multiplicity           Mult            ....    1
 Number of Electrons    NEL             ....   50
Dispersion correction           -0.007428464
FINAL SINGLE POINT ENERGY      -448.486836303171
Dispersion correction            ... done
Dispersion correction           -0.007431882
FINAL SINGLE POINT ENERGY      -448.486851618925
Dispersion correction            ... done
Dispersion correction           -0.007436943
FINAL SINGLE POINT ENERGY      -448.486859926842
Dispersion correction            ... done
                    ***********************HURRAY********************

CARTESIAN COORDINATES (ANGSTROEM)
---------------------------------
  Si    -2.021825    1.206620   -0.015103
  C     -0.732671    2.579515    0.092645
  C     -3.751585    1.958629    0.028090
  C     -1.794860    0.255736   -1.628519
  C     -1.803813    0.031602    1.444173
  H     -0.825221    3.278165   -0.740977
  H      0.280948    2.174278    0.071607
  H     -0.838182    3.153174    1.015667
  H     -3.900348    2.659688   -0.795610
  H     -3.926704    2.502589    0.958281
  H     -4.521680    1.189102   -0.052948
  H     -1.908452    0.911510   -2.494138
  H     -2.529852   -0.545612   -1.725172
  H     -0.803727   -0.198145   -1.688371
  H     -1.934832    0.549875    2.395945
  H     -0.807724   -0.415322    1.447631
  H     -2.528862   -0.784263    1.411679

 Multiplicity           Mult            ....    1
 Number of Electrons    NEL             ....   50
 Basis Dimension        Dim             ....  102

ORBITAL ENERGIES
----------------

  NO   OCC          E(Eh)            E(eV)
   0   2.0000     -66.716475     -1815.4476
   1   2.0000     -10.403707      -283.0993
   2   2.0000     -10.403617      -283.0968
   3   2.0000     -10.403601      -283.0964
   4   2.0000     -10.403578      -283.0958
   5   2.0000      -5.488543      -149.3508
   6   2.0000      -3.779986      -102.8586
   7   2.0000      -3.779971      -102.8582
   8   2.0000      -3.779954      -102.8578
   9   2.0000      -0.796812       -21.6824
  10   2.0000      -0.751109       -20.4387
  11   2.0000      -0.750918       -20.4335
  12   2.0000      -0.750905       -20.4332
  13   2.0000      -0.510672       -13.8961
  14   2.0000      -0.461569       -12.5599
  15   2.0000      -0.461479       -12.5575
  16   2.0000      -0.461433       -12.5562
  17   2.0000      -0.445141       -12.1129
  18   2.0000      -0.444956       -12.1079
  19   2.0000      -0.425795       -11.5865
  20   2.0000      -0.425761       -11.5855
  21   2.0000      -0.425721       -11.5845
  22   2.0000      -0.337098        -9.1729
  23   2.0000      -0.336869        -9.1667
  24   2.0000      -0.336815        -9.1652
  25   0.0000       0.117130         3.1873
  26   0.0000       0.142007         3.8642
  27   0.0000       0.142094         3.8666
  28   0.0000       0.142646         3.8816
  29   0.0000       0.179293         4.8788

MULLIKEN ATOMIC CHARGES
-----------------------
   0 Si:    1.036881
   1 C :   -0.969708
   2 C :   -0.969391
   3 C :   -0.969329
   4 C :   -0.969462
   5 H :    0.236694
   6 H :    0.236825
   7 H :    0.236835
   8 H :    0.236734
   9 H :    0.236727
  10 H :    0.236884
  11 H :    0.236519
  12 H :    0.236837
  13 H :    0.236698
  14 H :    0.236861
  15 H :    0.236846
  16 H :    0.236549
Sum of atomic charges:   -0.0000000

LOEWDIN ATOMIC CHARGES
----------------------
   0 Si:    0.583896
   1 C :   -0.579627
   2 C :   -0.579505
   3 C :   -0.579491
   4 C :   -0.579491
   5 H :    0.144411
   6 H :    0.144603
   7 H :    0.144584
   8 H :    0.144569
   9 H :    0.144453
  10 H :    0.144615
  11 H :    0.144475
  12 H :    0.144527
  13 H :    0.144433
  14 H :    0.144532
  15 H :    0.144632
  16 H :    0.144382

  Mayer bond orders larger than 0.100000
B(  0-Si,  1-C ) :   0.9449 B(  0-Si,  2-C ) :   0.9449 B(  0-Si,  3-C ) :   0.9449
B(  0-Si,  4-C ) :   0.9451 B(  1-C ,  5-H ) :   0.9101 B(  1-C ,  6-H ) :   0.9101
B(  1-C ,  7-H ) :   0.9102 B(  2-C ,  8-H ) :   0.9101 B(  2-C ,  9-H ) :   0.9102
B(  2-C , 10-H ) :   0.9101 B(  3-C , 11-H ) :   0.9101 B(  3-C , 12-H ) :   0.9101
B(  3-C , 13-H ) :   0.9103 B(  4-C , 14-H ) :   0.9101 B(  4-C , 15-H ) :   0.9100
B(  4-C , 16-H ) :   0.9103

Dispersion correction           -0.007437399
FINAL SINGLE POINT ENERGY      -448.486860493976

DIPOLE MOMENT
-------------
                                X             Y             Z
Electronic contribution:     -0.00871       0.00186       0.00868
Nuclear contribution   :      0.00732      -0.00204      -0.00741
                        -----------------------------------------
Total Dipole Moment    :     -0.00139      -0.00018       0.00127
                        -----------------------------------------
Magnitude (a.u.)       :      0.00189
Magnitude (Debye)      :      0.00481

Rotational constants in cm-1:     0.102767     0.102459     0.102419
Rotational constants in MHz :  3080.877566  3071.647856  3070.434947

                             ****ORCA TERMINATED NORMALLY****
TOTAL RUN TIME: 0 days 0 hours 1 minutes 19 seconds 351 msec
