                         Program Version 5.0.2 -  RELEASE  -
|  1> ! PBEh-3c Opt
|  2>
|  3> *xyzfile 0 1 TMS.xyz
|  4>
|  5>
|  6>
|  7>
|  8>                          ****END OF INPUT****
 Total Charge           Charge          ....    0
 Multiplicity           Mult            ....    1
 Number of Electrons    NEL             ....   50
Dispersion correction           -0.007574833
FINAL SINGLE POINT ENERGY      -448.478935701443
Dispersion correction            ... done
Dispersion correction           -0.007515625
FINAL SINGLE POINT ENERGY      -448.483803702160
Dispersion correction            ... done
Dispersion correction           -0.007459520
FINAL SINGLE POINT ENERGY      -448.484502015358
Dispersion correction            ... done
FINAL SINGLE POINT ENERGY      -448.484661325442
Dispersion correction            ... done
Dispersion correction           -0.007424477
FINAL SINGLE POINT ENERGY      -448.484668987568
Dispersion correction            ... done
Dispersion correction           -0.007426931
FINAL SINGLE POINT ENERGY      -448.484672066972
Dispersion correction            ... done
                    ***********************HURRAY********************

CARTESIAN COORDINATES (ANGSTROEM)
---------------------------------
  Si    -2.021649    1.206859   -0.015212
  C     -0.732782    2.580156    0.092370
  C     -3.751758    1.958344    0.028180
  C     -1.794206    0.255500   -1.628361
  C     -1.804144    0.031746    1.444182
  H     -0.823842    3.281748   -0.738348
  H      0.282011    2.179231    0.069231
  H     -0.833458    3.154736    1.014820
  H     -3.904862    2.660284   -0.793373
  H     -3.930575    2.502469    0.957048
  H     -4.524193    1.191803   -0.052912
  H     -1.905332    0.907662   -2.496451
  H     -2.527838   -0.545909   -1.729549
  H     -0.804785   -0.200759   -1.690538
  H     -1.932107    0.546573    2.397742
  H     -0.810588   -0.419713    1.450133
  H     -2.529283   -0.783590    1.415918

 Multiplicity           Mult            ....    1
 Number of Electrons    NEL             ....   50
 Basis Dimension        Dim             ....  102

ORBITAL ENERGIES
----------------

  NO   OCC          E(Eh)            E(eV)
   0   2.0000     -66.719342     -1815.5256
   1   2.0000     -10.407099      -283.1916
   2   2.0000     -10.406993      -283.1887
   3   2.0000     -10.406979      -283.1883
   4   2.0000     -10.406941      -283.1873
   5   2.0000      -5.491566      -149.4331
   6   2.0000      -3.782999      -102.9406
   7   2.0000      -3.782986      -102.9403
   8   2.0000      -3.782971      -102.9399
   9   2.0000      -0.799857       -21.7652
  10   2.0000      -0.754218       -20.5233
  11   2.0000      -0.754032       -20.5183
  12   2.0000      -0.754024       -20.5180
  13   2.0000      -0.514312       -13.9951
  14   2.0000      -0.464604       -12.6425
  15   2.0000      -0.464534       -12.6406
  16   2.0000      -0.464498       -12.6396
  17   2.0000      -0.448107       -12.1936
  18   2.0000      -0.447922       -12.1886
  19   2.0000      -0.428872       -11.6702
  20   2.0000      -0.428831       -11.6691
  21   2.0000      -0.428790       -11.6680
  22   2.0000      -0.340564        -9.2672
  23   2.0000      -0.340337        -9.2610
  24   2.0000      -0.340263        -9.2590
  25   0.0000       0.112328         3.0566
  26   0.0000       0.137878         3.7518
  27   0.0000       0.137959         3.7541
  28   0.0000       0.138445         3.7673
  29   0.0000       0.175021         4.7626

MULLIKEN ATOMIC CHARGES
-----------------------
   0 Si:    1.015176
   1 C :   -0.940446
   2 C :   -0.940263
   3 C :   -0.940197
   4 C :   -0.940482
   5 H :    0.228780
   6 H :    0.228889
   7 H :    0.228949
   8 H :    0.228909
   9 H :    0.228768
  10 H :    0.228891
  11 H :    0.228702
  12 H :    0.228877
  13 H :    0.228800
  14 H :    0.228928
  15 H :    0.228952
  16 H :    0.228767
Sum of atomic charges:   -0.0000000

LOEWDIN ATOMIC CHARGES
----------------------
   0 Si:    0.578331
   1 C :   -0.570080
   2 C :   -0.570020
   3 C :   -0.569982
   4 C :   -0.570065
   5 H :    0.141727
   6 H :    0.141896
   7 H :    0.141877
   8 H :    0.141888
   9 H :    0.141742
  10 H :    0.141863
  11 H :    0.141813
  12 H :    0.141790
  13 H :    0.141750
  14 H :    0.141801
  15 H :    0.141906
  16 H :    0.141762

  Mayer bond orders larger than 0.100000
B(  0-Si,  1-C ) :   0.9465 B(  0-Si,  2-C ) :   0.9464 B(  0-Si,  3-C ) :   0.9465
B(  0-Si,  4-C ) :   0.9466 B(  1-C ,  5-H ) :   0.9134 B(  1-C ,  6-H ) :   0.9133
B(  1-C ,  7-H ) :   0.9135 B(  2-C ,  8-H ) :   0.9133 B(  2-C ,  9-H ) :   0.9135
B(  2-C , 10-H ) :   0.9134 B(  3-C , 11-H ) :   0.9134 B(  3-C , 12-H ) :   0.9134
B(  3-C , 13-H ) :   0.9135 B(  4-C , 14-H ) :   0.9133 B(  4-C , 15-H ) :   0.9132
B(  4-C , 16-H ) :   0.9136

Dispersion correction           -0.007428464
FINAL SINGLE POINT ENERGY      -448.484672130892

DIPOLE MOMENT
-------------
                                X             Y             Z
Electronic contribution:     -0.00734       0.00384       0.00702
Nuclear contribution   :      0.00645      -0.00372      -0.00689
                        -----------------------------------------
Total Dipole Moment    :     -0.00089       0.00012       0.00014
                        -----------------------------------------
Magnitude (a.u.)       :      0.00091
Magnitude (Debye)      :      0.00232

Rotational constants in cm-1:     0.102667     0.102393     0.102361
Rotational constants in MHz :  3077.876201  3069.655695  3068.696258

                             ****ORCA TERMINATED NORMALLY****
TOTAL RUN TIME: 0 days 0 hours 2 minutes 17 seconds 637 msec
