                         Program Version 5.0.2 -  RELEASE  -
|  1> !PBE RI pcSseg-2 def2/J NMR
|  2>
|  3> *xyzfile 0 1 H.xyz
|  4>
|  5>
|  6>
|  7>                          ****END OF INPUT****

CARTESIAN COORDINATES (ANGSTROEM)
---------------------------------
  C     -3.229516   -2.688485   -3.338115
  C     -2.788775   -1.369920   -3.432692
  C     -2.131919   -1.398132   -1.130777
  C     -2.514482   -2.729800   -1.025535
  C     -3.142524   -3.339647   -2.110981
  C     -2.143178   -0.758980   -2.366336
  C     -1.012647    0.190998   -2.661641
  C     -1.731413   -3.582311   -0.058023
  C     -3.190220   -3.510219   -4.600902
  C     -1.737936   -3.556588   -5.153527
  C     -0.617395   -4.039251   -4.208539
  C     -0.214092   -3.501473   -0.392684
  C      0.273441   -3.907956   -1.803923
  C     -0.258885   -3.113702   -3.023036
  C      0.340528   -0.576315   -2.587777
  C      0.526184   -1.854299   -3.440891
  H     -2.702488   -0.919237   -4.416059
  H     -1.542594   -0.962043   -0.330721
  H     -3.317086   -4.410130   -2.076169
  H     -0.967114    1.022632   -1.953227
  H     -1.133647    0.628130   -3.655773
  H     -2.068050   -4.620679   -0.110456
  H     -1.862447   -3.260794    0.978935
  H     -3.837414   -3.098888   -5.380258
  H     -3.542497   -4.526113   -4.405676
  H     -1.486701   -2.567840   -5.547904
  H     -1.744907   -4.217918   -6.024958
  H      0.269959   -4.243983   -4.818282
  H     -0.923323   -5.010872   -3.806948
  H      0.305158   -4.148000    0.321356
  H      0.133804   -2.491055   -0.166623
  H      0.012737   -4.961937   -1.941669
  H      1.368562   -3.887044   -1.782004
  H     -1.198167   -2.745641   -2.707189
  H      0.542578   -0.811112   -1.539813
  H      1.121514    0.131068   -2.881476
  H      1.599258   -2.075204   -3.467861
  H      0.259613   -1.606219   -4.474497

 Total Charge           Charge          ....    0
 Multiplicity           Mult            ....    1
 Number of Electrons    NEL             ....  118
 Basis Dimension        Dim             ....  884

ORBITAL ENERGIES
----------------

  NO   OCC          E(Eh)            E(eV)
   0   2.0000      -9.889665      -269.1115
   1   2.0000      -9.889403      -269.1043
   2   2.0000      -9.888997      -269.0933
   3   2.0000      -9.885560      -268.9998
   4   2.0000      -9.885375      -268.9947
   5   2.0000      -9.884151      -268.9614
   6   2.0000      -9.881569      -268.8912
   7   2.0000      -9.881127      -268.8791
   8   2.0000      -9.880391      -268.8591
   9   2.0000      -9.874570      -268.7007
  10   2.0000      -9.874422      -268.6967
  11   2.0000      -9.874170      -268.6898
  12   2.0000      -9.873843      -268.6809
  13   2.0000      -9.873608      -268.6745
  14   2.0000      -9.873069      -268.6599
  15   2.0000      -9.863442      -268.3979
  16   2.0000      -0.799864       -21.7654
  17   2.0000      -0.735623       -20.0173
  18   2.0000      -0.734359       -19.9829
  19   2.0000      -0.732301       -19.9269
  20   2.0000      -0.668421       -18.1887
  21   2.0000      -0.667063       -18.1517
  22   2.0000      -0.665272       -18.1030
  23   2.0000      -0.611689       -16.6449
  24   2.0000      -0.608474       -16.5574
  25   2.0000      -0.565166       -15.3790
  26   2.0000      -0.544787       -14.8244
  27   2.0000      -0.540446       -14.7063
  28   2.0000      -0.505515       -13.7558
  29   2.0000      -0.496678       -13.5153
  30   2.0000      -0.487083       -13.2542
  31   2.0000      -0.450329       -12.2541
  32   2.0000      -0.434455       -11.8221
  33   2.0000      -0.426264       -11.5992
  34   2.0000      -0.411205       -11.1895
  35   2.0000      -0.401412       -10.9230
  36   2.0000      -0.392334       -10.6759
  37   2.0000      -0.387656       -10.5486
  38   2.0000      -0.377616       -10.2754
  39   2.0000      -0.372541       -10.1374
  40   2.0000      -0.364172        -9.9096
  41   2.0000      -0.347588        -9.4584
  42   2.0000      -0.344052        -9.3621
  43   2.0000      -0.339769        -9.2456
  44   2.0000      -0.330407        -8.9908
  45   2.0000      -0.324720        -8.8361
  46   2.0000      -0.319761        -8.7011
  47   2.0000      -0.309706        -8.4275
  48   2.0000      -0.307897        -8.3783
  49   2.0000      -0.306025        -8.3274
  50   2.0000      -0.296908        -8.0793
  51   2.0000      -0.294990        -8.0271
  52   2.0000      -0.287414        -7.8209
  53   2.0000      -0.274065        -7.4577
  54   2.0000      -0.263448        -7.1688
  55   2.0000      -0.254946        -6.9374
  56   2.0000      -0.230015        -6.2590
  57   2.0000      -0.210290        -5.7223
  58   2.0000      -0.208774        -5.6810
  59   0.0000      -0.050586        -1.3765
  60   0.0000      -0.043505        -1.1838
  61   0.0000      -0.005016        -0.1365
  62   0.0000       0.007671         0.2087
  63   0.0000       0.008416         0.2290

MULLIKEN ATOMIC CHARGES
-----------------------
   0 C :    0.098604
   1 C :   -0.172342
   2 C :   -0.217970
   3 C :    0.105595
   4 C :   -0.102220
   5 C :    0.108253
   6 C :    0.015801
   7 C :    0.002560
   8 C :    0.009817
   9 C :   -0.046554
  10 C :   -0.115892
  11 C :   -0.056229
  12 C :   -0.072297
  13 C :    0.163700
  14 C :   -0.064229
  15 C :   -0.067186
  16 H :   -0.009896
  17 H :   -0.001333
  18 H :   -0.020366
  19 H :    0.048573
  20 H :    0.034718
  21 H :    0.032857
  22 H :    0.052372
  23 H :    0.050878
  24 H :    0.037490
  25 H :    0.036825
  26 H :    0.025556
  27 H :    0.029583
  28 H :    0.022233
  29 H :    0.024750
  30 H :    0.039387
  31 H :    0.015386
  32 H :    0.022540
  33 H :   -0.142763
  34 H :    0.036731
  35 H :    0.022530
  36 H :    0.026996
  37 H :    0.025545
Sum of atomic charges:   -0.0000000

LOEWDIN ATOMIC CHARGES
----------------------
   0 C :   -0.048122
   1 C :   -0.028926
   2 C :   -0.025502
   3 C :   -0.048951
   4 C :   -0.029968
   5 C :   -0.050649
   6 C :   -0.036769
   7 C :   -0.036367
   8 C :   -0.038960
   9 C :   -0.039791
  10 C :   -0.038481
  11 C :   -0.039708
  12 C :   -0.034214
  13 C :   -0.070652
  14 C :   -0.035672
  15 C :   -0.036177
  16 H :    0.033802
  17 H :    0.036148
  18 H :    0.030853
  19 H :    0.036935
  20 H :    0.034424
  21 H :    0.034506
  22 H :    0.037578
  23 H :    0.037008
  24 H :    0.034667
  25 H :    0.024006
  26 H :    0.028684
  27 H :    0.031694
  28 H :    0.028908
  29 H :    0.028643
  30 H :    0.022115
  31 H :    0.029580
  32 H :    0.030394
  33 H :   -0.016699
  34 H :    0.025691
  35 H :    0.028333
  36 H :    0.029346
  37 H :    0.032294

  Mayer bond orders larger than 0.100000
B(  0-C ,  1-C ) :   1.3987 B(  0-C ,  4-C ) :   1.3869 B(  0-C ,  8-C ) :   0.9654
B(  1-C ,  5-C ) :   1.3772 B(  1-C , 16-H ) :   1.0409 B(  2-C ,  3-C ) :   1.3985
B(  2-C ,  5-C ) :   1.3880 B(  2-C , 17-H ) :   1.0446 B(  3-C ,  4-C ) :   1.3683
B(  3-C ,  7-C ) :   0.9692 B(  4-C , 18-H ) :   1.0341 B(  5-C ,  6-C ) :   0.9653
B(  6-C , 14-C ) :   0.9339 B(  6-C , 19-H ) :   0.9969 B(  6-C , 20-H ) :   0.9922
B(  7-C , 11-C ) :   0.9362 B(  7-C , 21-H ) :   0.9904 B(  7-C , 22-H ) :   0.9949
B(  8-C ,  9-C ) :   0.9334 B(  8-C , 23-H ) :   0.9966 B(  8-C , 24-H ) :   0.9894
B(  9-C , 10-C ) :   0.9750 B(  9-C , 25-H ) :   1.0093 B(  9-C , 26-H ) :   0.9982
B( 10-C , 13-C ) :   0.9703 B( 10-C , 27-H ) :   1.0114 B( 10-C , 28-H ) :   1.0122
B( 11-C , 12-C ) :   0.9646 B( 11-C , 29-H ) :   0.9999 B( 11-C , 30-H ) :   1.0115
B( 12-C , 13-C ) :   0.9860 B( 12-C , 31-H ) :   1.0109 B( 12-C , 32-H ) :   1.0023
B( 13-C , 15-C ) :   0.9260 B( 13-C , 33-H ) :   0.9633 B( 14-C , 15-C ) :   0.9730
B( 14-C , 34-H ) :   1.0145 B( 14-C , 35-H ) :   0.9962 B( 15-C , 36-H ) :   1.0050
B( 15-C , 37-H ) :   1.0140

FINAL SINGLE POINT ENERGY      -622.282105986217

DIPOLE MOMENT
-------------
                                X             Y             Z
Electronic contribution:     -9.35774       3.35678       2.70386
Nuclear contribution   :      9.84055      -3.48707      -2.81868
                        -----------------------------------------
Total Dipole Moment    :      0.48281      -0.13029      -0.11482
                        -----------------------------------------
Magnitude (a.u.)       :      0.51310
Magnitude (Debye)      :      1.30418

Rotational constants in cm-1:     0.022378     0.019720     0.018783
Rotational constants in MHz :   670.874952   591.200325   563.096069

CHEMICAL SHIELDING SUMMARY (ppm)
--------------------------------

  Nucleus  Element    Isotropic     Anisotropy
  -------  -------  ------------   ------------
      0       C           20.031        204.297
      1       C           39.686        122.828
      2       C           37.900        143.555
      3       C           18.204        207.585
      4       C           37.474         93.294
      5       C           20.852        205.709
      6       C          135.011         21.815
      7       C          135.624         22.141
      8       C          136.607         20.441
      9       C          144.917         23.875
     10       C          135.893         33.104
     11       C          139.036         18.018
     12       C          135.406         37.750
     13       C          156.374         16.327
     14       C          142.748         19.150
     15       C          143.767         20.378
     16       H           24.194          5.629
     17       H           23.905          6.222
     18       H           24.213          5.056
     19       H           28.199          8.511
     20       H           29.186          7.357
     21       H           29.185          6.827
     22       H           28.168          8.576
     23       H           28.315          8.711
     24       H           29.212          7.239
     25       H           29.876          5.376
     26       H           29.860         11.071
     27       H           30.291          8.529
     28       H           30.781          5.859
     29       H           29.661         10.372
     30       H           29.601          4.864
     31       H           30.533          6.511
     32       H           30.185          7.954
     33       H           34.736         24.484
     34       H           29.844          5.081
     35       H           29.747         10.747
     36       H           30.591          9.383
     37       H           30.544          5.896

                             ****ORCA TERMINATED NORMALLY****
TOTAL RUN TIME: 0 days 0 hours 6 minutes 3 seconds 966 msec
