   * xtb version 6.5.1 (579679a) compiled by 'ehlert@majestix' on 2022-07-11
          program call               : xtb claisen_end_2.xyz --opt

   ID    Z sym.   atoms
    1    6 C      1-3, 5, 6
    2    8 O      4
    3    1 H      7-14

          :  Hamiltonian                  GFN2-xTB          :
 * total energy  :   -18.7780016 Eh     change       -0.6751222E-10 Eh
 * total energy  :   -18.7836589 Eh     change       -0.5657361E-02 Eh
 * total energy  :   -18.7849222 Eh     change       -0.1263321E-02 Eh
 * total energy  :   -18.7855125 Eh     change       -0.5902224E-03 Eh
 * total energy  :   -18.7857799 Eh     change       -0.2674132E-03 Eh
 * total energy  :   -18.7861527 Eh     change       -0.3728333E-03 Eh
 * total energy  :   -18.7865537 Eh     change       -0.4010086E-03 Eh
 * total energy  :   -18.7869400 Eh     change       -0.3862942E-03 Eh
 * total energy  :   -18.7873175 Eh     change       -0.3774658E-03 Eh
 * total energy  :   -18.7875450 Eh     change       -0.2275447E-03 Eh
 * total energy  :   -18.7885531 Eh     change       -0.6947342E-04 Eh
 * total energy  :   -18.7886335 Eh     change       -0.8035322E-04 Eh
 * total energy  :   -18.7886815 Eh     change       -0.4803687E-04 Eh
 * total energy  :   -18.7887022 Eh     change       -0.2071464E-04 Eh
 * total energy  :   -18.7887231 Eh     change       -0.2086969E-04 Eh
 * total energy  :   -18.7887321 Eh     change       -0.9033833E-05 Eh
 * total energy  :   -18.7887326 Eh     change       -0.5174810E-06 Eh
 * total energy  :   -18.7887380 Eh     change       -0.5352814E-05 Eh
 * total energy  :   -18.7887407 Eh     change       -0.2763573E-05 Eh
   *** GEOMETRY OPTIMIZATION CONVERGED AFTER 25 ITERATIONS ***

 final structure:
================
14
 xtb: 6.5.1 (579679a)
C           -2.23637366637879        5.38725031886596       -3.56622130639752
C           -3.04331585090206        5.16305767938041       -2.32378103382956
C           -4.27381463719082        4.69265436247595       -2.25262966623596
O           -2.71445202006813        2.78163982383527       -4.64102241346960
C           -3.29982109719492        3.70987714137916       -5.12096729581181
C           -3.00678093962157        5.16137703200601       -4.86414881233598
H           -1.38110519399482        4.70504068141534       -3.54220884504768
H           -1.84129963456573        6.40706441998234       -3.54693993412550
H           -2.51707560380891        5.41809857989296       -1.41219547693237
H           -4.84427812854515        4.40894451945781       -3.12144685699014
H           -4.76829557746633        4.55761810453724       -1.30595788437253
H           -4.12064403706166        3.54897079350958       -5.85164723615660
H           -3.93480196841129        5.73495053028774       -4.87771146635575
H           -2.40419164478979        5.50118601297444       -5.71301177193919

          :  Hamiltonian                  GFN2-xTB          :
         :: total energy             -18.788740745306 Eh    ::
         :: gradient norm              0.000839320903 Eh/a0 ::
         :: HOMO-LUMO gap              3.794366460646 eV    ::
         :: SCC energy               -19.062587625800 Eh    ::
         :: -> dispersion             -0.008274241896 Eh    ::
         :: repulsion energy           0.273831011083 Eh    ::

    * Orbital Energies and Occupations

         #    Occupation            Energy/Eh            Energy/eV
      -------------------------------------------------------------
         1        2.0000           -0.7186292             -19.5549
       ...           ...                  ...                  ...
         5        2.0000           -0.5850425             -15.9198
         6        2.0000           -0.5629987             -15.3200
         7        2.0000           -0.5512356             -14.9999
         8        2.0000           -0.5445834             -14.8189
         9        2.0000           -0.5185686             -14.1110
        10        2.0000           -0.5146186             -14.0035
        11        2.0000           -0.4957724             -13.4907
        12        2.0000           -0.4779211             -13.0049
        13        2.0000           -0.4733044             -12.8793
        14        2.0000           -0.4520873             -12.3019
        15        2.0000           -0.4320296             -11.7561
        16        2.0000           -0.4052584             -11.0276
        17        2.0000           -0.4007548             -10.9051 (HOMO)
        18                         -0.2613144              -7.1107 (LUMO)
        19                         -0.2012184              -5.4754
        20                          0.0700710               1.9067
        21                          0.0923354               2.5126
        22                          0.1110931               3.0230
        23                          0.1347805               3.6676
        24                          0.1460723               3.9748
        25                          0.1710043               4.6533
        26                          0.1997458               5.4354
        27                          0.2229597               6.0670
        28                          0.2395533               6.5186
       ...                                ...                  ...
        32                          0.6287620              17.1095
      -------------------------------------------------------------
                  HL-Gap            0.1394404 Eh            3.7944 eV

     #   Z          covCN         q      C6AA      α(0)
     1   6 C        3.806    -0.055    21.550     6.609
     2   6 C        2.885    -0.026    28.640     8.774
     3   6 C        2.835    -0.092    30.301     9.021
     4   8 O        0.856    -0.320    20.151     6.018
     5   6 C        2.757     0.219    23.373     7.917
     6   6 C        3.803    -0.082    22.056     6.686
     7   1 H        0.924     0.067     2.119     2.276
     8   1 H        0.924     0.044     2.395     2.420
     9   1 H        0.925     0.035     2.521     2.483
    10   1 H        0.926     0.032     2.557     2.501
    11   1 H        0.926     0.037     2.488     2.466
    12   1 H        0.922     0.011     2.875     2.652
    13   1 H        0.924     0.060     2.201     2.320
    14   1 H        0.924     0.069     2.096     2.264

Wiberg/Mayer (AO) data.
largest (>0.10) Wiberg bond orders for each atom

     #   Z sym  total        # sym  WBO       # sym  WBO       # sym  WBO
 ---------------------------------------------------------------------------
     1   6 C    3.996 --     2 C    1.026     6 C    1.003     8 H    0.964
                             7 H    0.954
     2   6 C    3.991 --     3 C    1.978     1 C    1.026     9 H    0.966
     3   6 C    3.992 --     2 C    1.978    11 H    0.976    10 H    0.971
     4   8 O    2.099 --     5 C    1.927
     5   6 C    3.917 --     4 O    1.927     6 C    1.010    12 H    0.931
     6   6 C    3.997 --     5 C    1.010     1 C    1.003    13 H    0.961
                            14 H    0.934
     7   1 H    0.996 --     1 C    0.954
     8   1 H    0.998 --     1 C    0.964
     9   1 H    0.999 --     2 C    0.966
    10   1 H    0.999 --     3 C    0.971
    11   1 H    0.999 --     3 C    0.976
    12   1 H    1.000 --     5 C    0.931
    13   1 H    0.996 --     6 C    0.961
    14   1 H    0.995 --     6 C    0.934
 ---------------------------------------------------------------------------

molecular dipole:
                 x           y           z       tot (Debye)
 q only:       -0.105       0.947      -0.227
   full:       -0.211       1.082      -0.374       2.960

           -------------------------------------------------
          | TOTAL ENERGY              -18.788740745306 Eh   |
          | GRADIENT NORM               0.000839320903 Eh/α |
          | HOMO-LUMO GAP               3.794366460646 eV   |
           -------------------------------------------------

 * finished run on 2023/06/22 at 11:25:47.150
normal termination of xtb
