                         Program Version 5.0.2 -  RELEASE  -
|  1> !PBE RI pcSseg-2 def2/J NMR
|  2>
|  3> *xyzfile 0 1 Acetone.xyz
|  4>
|  5>
|  6>                          ****END OF INPUT****

CARTESIAN COORDINATES (ANGSTROEM)
---------------------------------
  C     -7.108905    1.387198   -0.000000
  C     -5.857466    2.239815   -0.000006
  C     -4.515106    1.538228    0.000001
  O     -5.927614    3.441591   -0.000007
  H     -6.908692    0.318270    0.000004
  H     -7.715105    1.627575   -0.874473
  H     -7.715103    1.627582    0.874472
  H     -4.590570    0.453426   -0.000010
  H     -3.941513    1.847574    0.874656
  H     -3.941495    1.847591   -0.874636

 Total Charge           Charge          ....    0
 Multiplicity           Mult            ....    1
 Number of Electrons    NEL             ....   32
 Basis Dimension        Dim             ....  228

ORBITAL ENERGIES
----------------

  NO   OCC          E(Eh)            E(eV)
   0   2.0000     -18.734182      -509.7830
   1   2.0000      -9.972239      -271.3584
   2   2.0000      -9.886356      -269.0214
   3   2.0000      -9.886338      -269.0209
   4   2.0000      -0.959922       -26.1208
   5   2.0000      -0.698307       -19.0019
   6   2.0000      -0.648722       -17.6526
   7   2.0000      -0.481876       -13.1125
   8   2.0000      -0.416450       -11.3322
   9   2.0000      -0.414383       -11.2759
  10   2.0000      -0.407100       -11.0778
  11   2.0000      -0.366125        -9.9628
  12   2.0000      -0.354748        -9.6532
  13   2.0000      -0.335681        -9.1343
  14   2.0000      -0.311047        -8.4640
  15   2.0000      -0.208731        -5.6799
  16   0.0000      -0.063910        -1.7391
  17   0.0000      -0.005951        -0.1619
  18   0.0000       0.032529         0.8852
  19   0.0000       0.040327         1.0973
  20   0.0000       0.066400         1.8068

MULLIKEN ATOMIC CHARGES
-----------------------
   0 C :   -0.077539
   1 C :    0.212057
   2 C :   -0.077313
   3 O :   -0.342766
   4 H :    0.025854
   5 H :    0.058515
   6 H :    0.058515
   7 H :    0.025842
   8 H :    0.058417
   9 H :    0.058417
Sum of atomic charges:   -0.0000000

LOEWDIN ATOMIC CHARGES
----------------------
   0 C :   -0.061604
   1 C :   -0.118999
   2 C :   -0.061454
   3 O :   -0.006693
   4 H :    0.028389
   5 H :    0.048038
   6 H :    0.048038
   7 H :    0.028350
   8 H :    0.047968
   9 H :    0.047967

  Mayer bond orders larger than 0.100000
B(  0-C ,  1-C ) :   0.9451 B(  0-C ,  4-H ) :   0.9878 B(  0-C ,  5-H ) :   0.9809
B(  0-C ,  6-H ) :   0.9809 B(  1-C ,  2-C ) :   0.9448 B(  1-C ,  3-O ) :   2.0476
B(  2-C ,  7-H ) :   0.9879 B(  2-C ,  8-H ) :   0.9810 B(  2-C ,  9-H ) :   0.9810

FINAL SINGLE POINT ENERGY      -192.988895866052

DIPOLE MOMENT
-------------
                                X             Y             Z
Electronic contribution:     -0.21882       3.76526      -0.00002
Nuclear contribution   :      0.28112      -4.84007       0.00003
                        -----------------------------------------
Total Dipole Moment    :      0.06230      -1.07482       0.00000
                        -----------------------------------------
Magnitude (a.u.)       :      1.07662
Magnitude (Debye)      :      2.73655

Rotational constants in cm-1:     0.348794     0.277515     0.163812
Rotational constants in MHz : 10456.578112  8319.694946  4910.963390

CHEMICAL SHIELDING SUMMARY (ppm)
--------------------------------

  Nucleus  Element    Isotropic     Anisotropy
  -------  -------  ------------   ------------
      0       C          150.338         54.087
      1       C          -34.835       -114.538
      2       C          150.296         54.116
      3       O         -339.176       -892.593
      4       H           29.107          3.505
      5       H           29.508          5.856
      6       H           29.508          5.856
      7       H           29.107          3.499
      8       H           29.511          5.850
      9       H           29.511          5.850

                             ****ORCA TERMINATED NORMALLY****
TOTAL RUN TIME: 0 days 0 hours 0 minutes 35 seconds 288 msec
