                         Program Version 5.0.2 -  RELEASE  -
|  1> !PBE RI pcSseg-2 def2/J NMR
|  2> ! CPCM(Water)
|  3>
|  4> *xyzfile 0 1 H2O.xyz
|  5>
|  6>
|  7>                          ****END OF INPUT****

CARTESIAN COORDINATES (ANGSTROEM)
---------------------------------
  O     -5.359393    1.452161    0.012135
  H     -4.402798    1.464997   -0.022964
  H     -5.643088    1.766202   -0.846671

 Total Charge           Charge          ....    0
 Multiplicity           Mult            ....    1
 Number of Electrons    NEL             ....   10
 Basis Dimension        Dim             ....   64

ORBITAL ENERGIES
----------------

  NO   OCC          E(Eh)            E(eV)
   0   2.0000     -18.744491      -510.0635
   1   2.0000      -0.923264       -25.1233
   2   2.0000      -0.476689       -12.9714
   3   2.0000      -0.338850        -9.2206
   4   2.0000      -0.263387        -7.1671
   5   0.0000       0.001569         0.0427
   6   0.0000       0.073586         2.0024
   7   0.0000       0.252651         6.8750
   8   0.0000       0.274864         7.4794
   9   0.0000       0.300778         8.1846

MULLIKEN ATOMIC CHARGES
-----------------------
   0 O :   -0.492031
   1 H :    0.246002
   2 H :    0.246029
Sum of atomic charges:    0.0000000

LOEWDIN ATOMIC CHARGES
----------------------
   0 O :    0.068022
   1 H :   -0.034067
   2 H :   -0.033955

  Mayer bond orders larger than 0.100000
B(  0-O ,  1-H ) :   0.9948 B(  0-O ,  2-H ) :   0.9948

FINAL SINGLE POINT ENERGY       -76.391776428235

DIPOLE MOMENT
-------------
                                X             Y             Z
Electronic contribution:     -0.03759      -0.01830       0.05004
Nuclear contribution   :      0.56010       0.27208      -0.74405
                        -----------------------------------------
Total Dipole Moment    :      0.52251       0.25378      -0.69401
                        -----------------------------------------
Magnitude (a.u.)       :      0.90503
Magnitude (Debye)      :      2.30039

Rotational constants in cm-1:    27.719161    14.494982     9.517870
Rotational constants in MHz : 830999.538536 434548.636402 285338.577758

CHEMICAL SHIELDING SUMMARY (ppm)
--------------------------------

  Nucleus  Element    Isotropic     Anisotropy
  -------  -------  ------------   ------------
      0       O          339.448         51.057
      1       H           30.258         20.894
      2       H           30.248         20.899

                             ****ORCA TERMINATED NORMALLY****
TOTAL RUN TIME: 0 days 0 hours 0 minutes 5 seconds 877 msec
