                         Program Version 5.0.2 -  RELEASE  -
|  1> ! RHF def2-TZVP TightSCF Conv
|  2>
|  3> %casscf
|  4>   nel 1
|  5>   norb 1
|  6>   switchstep nr
|  7> end
|  8>
|  9> * xyz 0 2
| 10> H 0 0 0
| 11> **                         ****END OF INPUT****

CARTESIAN COORDINATES (ANGSTROEM)
---------------------------------
  H      0.000000    0.000000    0.000000

 Total Charge           Charge          ....    0
 Multiplicity           Mult            ....    2
 Number of Electrons    NEL             ....    1
 Basis Dimension        Dim             ....    6

ORBITAL ENERGIES
----------------

  NO   OCC          E(Eh)            E(eV)
   0   1.0000      -0.187267        -5.0958
   1   0.0000       0.390889        10.6366
   2   0.0000       1.661286        45.2059
   3   0.0000       1.661286        45.2059
   4   0.0000       1.661286        45.2059
   5   0.0000       2.545282        69.2607

MULLIKEN ATOMIC CHARGES AND SPIN DENSITIES
------------------------------------------
   0 H :   -0.000000    1.000000
Sum of atomic charges       :   -0.0000000

LOEWDIN ATOMIC CHARGES AND SPIN DENSITIES
-----------------------------------------
   0 H :   -0.000000    1.000000

FINAL SINGLE POINT ENERGY        -0.499809830693

DIPOLE MOMENT
-------------
                                X             Y             Z
Electronic contribution:     -0.00000       0.00000       0.00000
Nuclear contribution   :      0.00000       0.00000       0.00000
                        -----------------------------------------
Total Dipole Moment    :     -0.00000       0.00000       0.00000
                        -----------------------------------------
Magnitude (a.u.)       :      0.00000
Magnitude (Debye)      :      0.00000

Rotational constants in cm-1:     0.000000     0.000000     0.000000
Rotational constants in MHz :     0.000000     0.000000     0.000000

                             ****ORCA TERMINATED NORMALLY****
TOTAL RUN TIME: 0 days 0 hours 0 minutes 28 seconds 943 msec
