                         Program Version 5.0.2 -  RELEASE  -
|  1> !PBE RI pcSseg-2 def2/J NMR
|  2>
|  3> *xyzfile 0 1 H2O.xyz
|  4>
|  5>
|  6>                          ****END OF INPUT****

CARTESIAN COORDINATES (ANGSTROEM)
---------------------------------
  O     -5.359393    1.452161    0.012135
  H     -4.402798    1.464997   -0.022964
  H     -5.643088    1.766202   -0.846671

 Total Charge           Charge          ....    0
 Multiplicity           Mult            ....    1
 Number of Electrons    NEL             ....   10
 Basis Dimension        Dim             ....   64

ORBITAL ENERGIES
----------------

  NO   OCC          E(Eh)            E(eV)
   0   2.0000     -18.748038      -510.1600
   1   2.0000      -0.927901       -25.2495
   2   2.0000      -0.483326       -13.1520
   3   2.0000      -0.337447        -9.1824
   4   2.0000      -0.261859        -7.1255
   5   0.0000      -0.014649        -0.3986
   6   0.0000       0.052365         1.4249
   7   0.0000       0.251094         6.8326
   8   0.0000       0.274989         7.4828
   9   0.0000       0.302210         8.2236

MULLIKEN ATOMIC CHARGES
-----------------------
   0 O :   -0.389634
   1 H :    0.194782
   2 H :    0.194852
Sum of atomic charges:    0.0000000

LOEWDIN ATOMIC CHARGES
----------------------
   0 O :    0.103319
   1 H :   -0.051722
   2 H :   -0.051597

  Mayer bond orders larger than 0.100000
B(  0-O ,  1-H ) :   1.0322 B(  0-O ,  2-H ) :   1.0322

FINAL SINGLE POINT ENERGY       -76.381937204758

DIPOLE MOMENT
-------------
                                X             Y             Z
Electronic contribution:     -0.11870      -0.05768       0.15773
Nuclear contribution   :      0.56010       0.27208      -0.74405
                        -----------------------------------------
Total Dipole Moment    :      0.44139       0.21440      -0.58632
                        -----------------------------------------
Magnitude (a.u.)       :      0.76457
Magnitude (Debye)      :      1.94339

Rotational constants in cm-1:    27.719161    14.494982     9.517870
Rotational constants in MHz : 830999.538536 434548.636402 285338.577758

CHEMICAL SHIELDING SUMMARY (ppm)
--------------------------------

  Nucleus  Element    Isotropic     Anisotropy
  -------  -------  ------------   ------------
      0       O          330.497         44.591
      1       H           31.248         19.535
      2       H           31.242         19.538

                             ****ORCA TERMINATED NORMALLY****
TOTAL RUN TIME: 0 days 0 hours 0 minutes 4 seconds 107 msec
