                         Program Version 5.0.2 -  RELEASE  -
|  1> !PBE RI pcSseg-2 def2/J NMR
|  2> ! CPCM(Water)
|  3>
|  4> *xyzfile 0 1 TMS.xyz
|  5>
|  6>
|  7>                          ****END OF INPUT****

CARTESIAN COORDINATES (ANGSTROEM)
---------------------------------
  Si    -2.021825    1.206620   -0.015103
  C     -0.732671    2.579515    0.092645
  C     -3.751585    1.958629    0.028090
  C     -1.794860    0.255736   -1.628519
  C     -1.803813    0.031602    1.444173
  H     -0.825221    3.278165   -0.740977
  H      0.280948    2.174278    0.071607
  H     -0.838182    3.153174    1.015667
  H     -3.900348    2.659688   -0.795610
  H     -3.926704    2.502589    0.958281
  H     -4.521680    1.189102   -0.052948
  H     -1.908452    0.911510   -2.494138
  H     -2.529852   -0.545612   -1.725172
  H     -0.803727   -0.198145   -1.688371
  H     -1.934832    0.549875    2.395945
  H     -0.807724   -0.415322    1.447631
  H     -2.528862   -0.784263    1.411679

 Total Charge           Charge          ....    0
 Multiplicity           Mult            ....    1
 Number of Electrons    NEL             ....   50
 Basis Dimension        Dim             ....  355

ORBITAL ENERGIES
----------------

  NO   OCC          E(Eh)            E(eV)
   0   2.0000     -65.359349     -1778.5183
   1   2.0000      -9.848592      -267.9938
   2   2.0000      -9.848531      -267.9922
   3   2.0000      -9.848505      -267.9915
   4   2.0000      -9.848488      -267.9910
   5   2.0000      -5.014658      -136.4558
   6   2.0000      -3.424602       -93.1882
   7   2.0000      -3.424596       -93.1880
   8   2.0000      -3.424564       -93.1871
   9   2.0000      -0.644545       -17.5390
  10   2.0000      -0.604184       -16.4407
  11   2.0000      -0.604026       -16.4364
  12   2.0000      -0.604008       -16.4359
  13   2.0000      -0.403136       -10.9699
  14   2.0000      -0.361379        -9.8336
  15   2.0000      -0.361307        -9.8317
  16   2.0000      -0.361248        -9.8301
  17   2.0000      -0.346870        -9.4388
  18   2.0000      -0.346695        -9.4341
  19   2.0000      -0.329406        -8.9636
  20   2.0000      -0.329376        -8.9628
  21   2.0000      -0.329337        -8.9617
  22   2.0000      -0.253759        -6.9051
  23   2.0000      -0.253554        -6.8996
  24   2.0000      -0.253487        -6.8977
  25   0.0000      -0.003977        -0.1082
  26   0.0000       0.033940         0.9236
  27   0.0000       0.033952         0.9239
  28   0.0000       0.033974         0.9245
  29   0.0000       0.052876         1.4388

MULLIKEN ATOMIC CHARGES
-----------------------
   0 Si:    0.645546
   1 C :   -0.337401
   2 C :   -0.337235
   3 C :   -0.337706
   4 C :   -0.336017
   5 H :    0.058502
   6 H :    0.058706
   7 H :    0.058636
   8 H :    0.058462
   9 H :    0.058875
  10 H :    0.058676
  11 H :    0.058420
  12 H :    0.058586
  13 H :    0.058887
  14 H :    0.058395
  15 H :    0.058204
  16 H :    0.058465
Sum of atomic charges:    0.0000000

LOEWDIN ATOMIC CHARGES
----------------------
   0 Si:    0.943998
   1 C :   -0.290907
   2 C :   -0.290881
   3 C :   -0.290964
   4 C :   -0.290917
   5 H :    0.018131
   6 H :    0.018376
   7 H :    0.018385
   8 H :    0.018374
   9 H :    0.018257
  10 H :    0.018366
  11 H :    0.018328
  12 H :    0.018251
  13 H :    0.018286
  14 H :    0.018248
  15 H :    0.018359
  16 H :    0.018310

  Mayer bond orders larger than 0.100000
B(  0-Si,  1-C ) :   0.9391 B(  0-Si,  2-C ) :   0.9388 B(  0-Si,  3-C ) :   0.9389
B(  0-Si,  4-C ) :   0.9389 B(  1-C ,  5-H ) :   0.9831 B(  1-C ,  6-H ) :   0.9830
B(  1-C ,  7-H ) :   0.9831 B(  2-C ,  8-H ) :   0.9830 B(  2-C ,  9-H ) :   0.9831
B(  2-C , 10-H ) :   0.9831 B(  3-C , 11-H ) :   0.9830 B(  3-C , 12-H ) :   0.9831
B(  3-C , 13-H ) :   0.9830 B(  4-C , 14-H ) :   0.9832 B(  4-C , 15-H ) :   0.9830
B(  4-C , 16-H ) :   0.9831

FINAL SINGLE POINT ENERGY      -448.882047202993

DIPOLE MOMENT
-------------
                                X             Y             Z
Electronic contribution:     -0.00879       0.00236       0.00896
Nuclear contribution   :      0.00732      -0.00204      -0.00741
                        -----------------------------------------
Total Dipole Moment    :     -0.00147       0.00031       0.00155
                        -----------------------------------------
Magnitude (a.u.)       :      0.00216
Magnitude (Debye)      :      0.00549

Rotational constants in cm-1:     0.102767     0.102459     0.102419
Rotational constants in MHz :  3080.877566  3071.647856  3070.434947

CHEMICAL SHIELDING SUMMARY (ppm)
--------------------------------

  Nucleus  Element    Isotropic     Anisotropy
  -------  -------  ------------   ------------
      0       Si         323.081          0.720
      1       C          182.670         10.669
      2       C          182.709         10.695
      3       C          182.674         10.702
      4       C          182.694         10.666
      5       H           31.461          9.448
      6       H           31.455          9.404
      7       H           31.447          9.415
      8       H           31.452          9.408
      9       H           31.452          9.460
     10       H           31.451          9.424
     11       H           31.454          9.406
     12       H           31.458          9.428
     13       H           31.456          9.437
     14       H           31.456          9.437
     15       H           31.459          9.399
     16       H           31.449          9.447

                             ****ORCA TERMINATED NORMALLY****
TOTAL RUN TIME: 0 days 0 hours 1 minutes 17 seconds 940 msec
