                         Program Version 5.0.2 -  RELEASE  -
|  1> !PBE RI pcSseg-2 def2/J NMR
|  2>
|  3> *xyzfile 0 1 OPT_G.xyz
|  4>
|  5>
|  6>                          ****END OF INPUT****

CARTESIAN COORDINATES (ANGSTROEM)
---------------------------------
  C     -7.366053    1.339991   -7.001616
  C     -7.417624   -0.060481   -6.418278
  O     -6.906056    2.265658   -6.046950
  O     -6.159677   -0.441781   -5.916614
  C     -5.699676    0.483884   -4.961949
  C     -5.648109    1.884359   -5.545282
  H     -8.361798    1.660335   -7.315122
  H     -6.716896    1.343721   -7.890606
  H     -7.696626   -0.784434   -7.186653
  H     -8.180324   -0.101460   -5.625725
  H     -4.703926    0.163545   -4.648452
  H     -6.348826    0.480149   -4.072954
  H     -4.885405    1.925347   -6.337831
  H     -5.369114    2.608306   -4.776899

 Total Charge           Charge          ....    0
 Multiplicity           Mult            ....    1
 Number of Electrons    NEL             ....   48
 Basis Dimension        Dim             ....  328

ORBITAL ENERGIES
----------------

  NO   OCC          E(Eh)            E(eV)
   0   2.0000     -18.757089      -510.4063
   1   2.0000     -18.757088      -510.4063
   2   2.0000      -9.928559      -270.1698
   3   2.0000      -9.928559      -270.1698
   4   2.0000      -9.928421      -270.1661
   5   2.0000      -9.928420      -270.1660
   6   2.0000      -0.980901       -26.6917
   7   2.0000      -0.943861       -25.6838
   8   2.0000      -0.714687       -19.4476
   9   2.0000      -0.631572       -17.1860
  10   2.0000      -0.610400       -16.6098
  11   2.0000      -0.521579       -14.1929
  12   2.0000      -0.462730       -12.5915
  13   2.0000      -0.446851       -12.1594
  14   2.0000      -0.433848       -11.8056
  15   2.0000      -0.429538       -11.6883
  16   2.0000      -0.401452       -10.9241
  17   2.0000      -0.356361        -9.6971
  18   2.0000      -0.332439        -9.0461
  19   2.0000      -0.325491        -8.8571
  20   2.0000      -0.320898        -8.7321
  21   2.0000      -0.262259        -7.1364
  22   2.0000      -0.243052        -6.6138
  23   2.0000      -0.200762        -5.4630
  24   0.0000       0.005028         0.1368
  25   0.0000       0.019555         0.5321
  26   0.0000       0.019820         0.5393
  27   0.0000       0.035065         0.9542
  28   0.0000       0.046304         1.2600

MULLIKEN ATOMIC CHARGES
-----------------------
   0 C :    0.150784
   1 C :    0.149808
   2 O :   -0.397527
   3 O :   -0.397527
   4 C :    0.150788
   5 C :    0.149806
   6 H :    0.035330
   7 H :    0.012935
   8 H :    0.035304
   9 H :    0.013365
  10 H :    0.035331
  11 H :    0.012934
  12 H :    0.013365
  13 H :    0.035304
Sum of atomic charges:    0.0000000

LOEWDIN ATOMIC CHARGES
----------------------
   0 C :   -0.068647
   1 C :   -0.068716
   2 O :    0.019496
   3 O :    0.019496
   4 C :   -0.068648
   5 C :   -0.068716
   6 H :    0.036790
   7 H :    0.022151
   8 H :    0.036806
   9 H :    0.022121
  10 H :    0.036791
  11 H :    0.022150
  12 H :    0.022121
  13 H :    0.036806

  Mayer bond orders larger than 0.100000
B(  0-C ,  1-C ) :   0.9844 B(  0-C ,  2-O ) :   0.9433 B(  0-C ,  6-H ) :   0.9790
B(  0-C ,  7-H ) :   0.9791 B(  1-C ,  3-O ) :   0.9432 B(  1-C ,  8-H ) :   0.9790
B(  1-C ,  9-H ) :   0.9792 B(  2-O ,  5-C ) :   0.9432 B(  3-O ,  4-C ) :   0.9433
B(  4-C ,  5-C ) :   0.9844 B(  4-C , 10-H ) :   0.9790 B(  4-C , 11-H ) :   0.9791
B(  5-C , 12-H ) :   0.9792 B(  5-C , 13-H ) :   0.9790

FINAL SINGLE POINT ENERGY      -307.412832225632

DIPOLE MOMENT
-------------
                                X             Y             Z
Electronic contribution:     -0.00001      -0.00000      -0.00001
Nuclear contribution   :      0.00001       0.00000       0.00001
                        -----------------------------------------
Total Dipole Moment    :     -0.00000      -0.00000      -0.00000
                        -----------------------------------------
Magnitude (a.u.)       :      0.00000
Magnitude (Debye)      :      0.00000

Rotational constants in cm-1:     0.171660     0.157800     0.092244
Rotational constants in MHz :  5146.248509  4730.728308  2765.414363

CHEMICAL SHIELDING SUMMARY (ppm)
--------------------------------

  Nucleus  Element    Isotropic     Anisotropy
  -------  -------  ------------   ------------
      0       C          107.142         51.095
      1       C          107.163         51.104
      2       O          276.760         77.062
      3       O          276.758         77.043
      4       C          107.196         51.088
      5       C          107.196         51.060
      6       H           27.787          6.594
      7       H           27.705          7.493
      8       H           27.789          6.596
      9       H           27.705          7.491
     10       H           27.787          6.595
     11       H           27.707          7.496
     12       H           27.707          7.495
     13       H           27.789          6.595

                             ****ORCA TERMINATED NORMALLY****
TOTAL RUN TIME: 0 days 0 hours 0 minutes 57 seconds 237 msec
