                         Program Version 5.0.2 -  RELEASE  -
|  1> !PBE RI pcSseg-2 def2/J NMR
|  2>
|  3> *xyzfile 0 1 OPT_E.xyz
|  4>
|  5>
|  6>                          ****END OF INPUT****

CARTESIAN COORDINATES (ANGSTROEM)
---------------------------------
  C     -8.523777    2.917488    1.933246
  C     -7.411987    3.363466    2.002552
  C     -6.066284    3.903450    2.086576
  H     -9.508459    2.522095    1.872173
  H     -6.000971    4.870610    1.588418
  H     -5.346229    3.234961    1.614871
  H     -5.764404    4.040931    3.124784

 Total Charge           Charge          ....    0
 Multiplicity           Mult            ....    1
 Number of Electrons    NEL             ....   22
 Basis Dimension        Dim             ....  164

ORBITAL ENERGIES
----------------

  NO   OCC          E(Eh)            E(eV)
   0   2.0000      -9.903969      -269.5007
   1   2.0000      -9.884753      -268.9778
   2   2.0000      -9.868781      -268.5432
   3   2.0000      -0.710541       -19.3348
   4   2.0000      -0.635554       -17.2943
   5   2.0000      -0.475502       -12.9391
   6   2.0000      -0.409565       -11.1448
   7   2.0000      -0.390179       -10.6173
   8   2.0000      -0.390153       -10.6166
   9   2.0000      -0.239564        -6.5189
  10   2.0000      -0.239557        -6.5187
  11   0.0000       0.003173         0.0864
  12   0.0000       0.006354         0.1729
  13   0.0000       0.006362         0.1731
  14   0.0000       0.038246         1.0407
  15   0.0000       0.071060         1.9336

MULLIKEN ATOMIC CHARGES
-----------------------
   0 C :   -0.240820
   1 C :    0.077894
   2 C :   -0.063553
   3 H :    0.041748
   4 H :    0.061595
   5 H :    0.061573
   6 H :    0.061563
Sum of atomic charges:    0.0000000

LOEWDIN ATOMIC CHARGES
----------------------
   0 C :   -0.052416
   1 C :   -0.050739
   2 C :   -0.064811
   3 H :    0.017642
   4 H :    0.050101
   5 H :    0.050103
   6 H :    0.050120

  Mayer bond orders larger than 0.100000
B(  0-C ,  1-C ) :   2.7331 B(  0-C ,  3-H ) :   1.1026 B(  1-C ,  2-C ) :   1.0518
B(  2-C ,  4-H ) :   0.9750 B(  2-C ,  5-H ) :   0.9751 B(  2-C ,  6-H ) :   0.9751

FINAL SINGLE POINT ENERGY      -116.537741883860

DIPOLE MOMENT
-------------
                                X             Y             Z
Electronic contribution:     -1.97081      -0.79059      -0.12353
Nuclear contribution   :      2.29166       0.91919       0.14379
                        -----------------------------------------
Total Dipole Moment    :      0.32085       0.12859       0.02026
                        -----------------------------------------
Magnitude (a.u.)       :      0.34625
Magnitude (Debye)      :      0.88010

Rotational constants in cm-1:     5.386808     0.287499     0.287498
Rotational constants in MHz : 161492.454277  8619.002993  8618.958585

CHEMICAL SHIELDING SUMMARY (ppm)
--------------------------------

  Nucleus  Element    Isotropic     Anisotropy
  -------  -------  ------------   ------------
      0       C          110.525        224.581
      1       C           96.382        292.582
      2       C          177.725         28.333
      3       H           30.276         14.928
      4       H           29.659          9.738
      5       H           29.659          9.737
      6       H           29.658          9.737

                             ****ORCA TERMINATED NORMALLY****
TOTAL RUN TIME: 0 days 0 hours 0 minutes 17 seconds 377 msec
